 written on 15Apr2025 at 13:40:09 
  -2.7218511831824337        0.0000000000000000        2.7218511831824337     
   0.0000000000000000        2.7218511831824337        2.7218511831824337     
  -2.7218511831824337        2.7218511831824337        0.0000000000000000     
           8
         279
    3    2    2    3    2    3    6    2    2    2    1    2    2    1    1
    2    2    1    1    1    2    2    1    1    1    1    2    6    2    2
    2    2    2    6    2    2    3    1    1    1    3    2    1    1    1
    1    2    3    1    1    1    1    1    3    1    1    1    1    1    1
    2    1    1    1    1    1    2    2    1    1    1    1    2    3    2
    3    2    1    2    2    1    1    1    1    2    2    1    1    1    1
    1    2    1    1    1    1    1    1    2    1    1    1    1    1    2
    1    1    1    1    1    1    2    1    1    1    2    2    2    3    2
    1    1    2    3    1    1    1    1    1    3    1    1    1    1    1
    1    2    1    1    1    1    1    2    1    1    1    1    1    1    3
    1    1    1    1    1    3    2    1    1    2    3    2    2    2    1
    1    1    2    1    1    1    1    1    1    2    1    1    1    1    1
    2    1    1    1    1    1    1    2    1    1    1    1    1    2    2
    1    1    1    1    2    2    1    2    3    2    3    2    1    1    1
    1    2    2    1    1    1    1    1    2    1    1    1    1    1    1
    3    1    1    1    1    1    3    2    1    1    1    1    2    3    1
    1    1    3    2    2    6    2    2    2    2    2    6    2    1    1
    1    1    2    2    1    1    1    2    2    1    1    2    2    1    2
    2    2    6    3    2    3    2    2    3

   -4    0    2
    1    1    0.24672032E-02  0.28668110E-10
    2    1    0.41552974E-02  0.26838740E-10
    3    1    0.43074453E-02  0.39076647E-10
    4    1    0.44595931E-02 -0.13412870E-09
    5    1    0.71320112E-03  0.55386665E-09
    6    1   -0.87209148E-03  0.23180356E-09
    7    1   -0.84166619E-02 -0.66473295E-10
    8    1   -0.84061568E-02 -0.40131266E-10
    1    2   -0.69640092E-02 -0.15305363E-09
    2    2   -0.29120632E-02 -0.60729033E-10
    3    2    0.26376811E-02  0.87097092E-11
    4    2    0.27797354E-02 -0.20423951E-09
    5    2    0.44711125E-02  0.17236809E-09
    6    2    0.58753768E-02 -0.66853489E-10
    7    2   -0.96732353E-02  0.73263150E-10
    8    2   -0.96437125E-02  0.42333915E-09
    1    3   -0.71151847E-02 -0.22525998E-09
    2    3    0.27218205E-02  0.37395920E-11
    3    3   -0.29047384E-02  0.34842285E-10
    4    3    0.26135140E-02 -0.15485498E-09
    5    3    0.54549841E-02 -0.31864138E-11
    6    3    0.49978296E-03 -0.14622316E-09
    7    3   -0.95063140E-03  0.22016259E-09
    8    3    0.65968782E-02  0.27064608E-09
    1    4   -0.72663601E-02 -0.43562975E-09
    2    4    0.25555990E-02  0.94528873E-10
    3    4    0.26976533E-02  0.13053402E-09
    4    4   -0.28974136E-02 -0.29115568E-10
    5    4    0.54715962E-02  0.92998832E-09
    6    4    0.54380735E-03  0.42596980E-10
    7    4    0.66064979E-02 -0.93835590E-09
    8    4   -0.10001082E-02 -0.80498371E-10
    1    5    0.30681804E-02 -0.40082235E-10
    2    5   -0.19164883E-02 -0.49060602E-10
    3    5   -0.98236397E-02 -0.13861411E-09
    4    5   -0.98077949E-02  0.10211184E-09
    5    5    0.35215369E-02 -0.15660372E-10
    6    5    0.59862708E-02  0.21559987E-09
    7    5    0.59471223E-02  0.29714107E-10
    8    5    0.59079740E-02 -0.94178910E-10
    1    6    0.39964273E-02 -0.77206332E-11
    2    6   -0.72926793E-02 -0.48553078E-10
    3    6   -0.96607727E-03  0.14707331E-09
    4    6   -0.99156439E-03  0.11030782E-09
    5    6   -0.62618161E-02 -0.47682075E-10
    6    6   -0.33827068E-02 -0.15986507E-10
    7    6    0.19057034E-02  0.23201153E-09
    8    6    0.18509203E-02 -0.56074959E-10
    1    7    0.67766977E-02  0.10213453E-10
    2    7    0.89615432E-02  0.15097486E-09
    3    7    0.10894689E-01  0.43283045E-10
    4    7   -0.12692526E-01  0.58303327E-09
    5    7   -0.62183619E-02  0.25241588E-09
    6    7    0.16051760E-02 -0.27452959E-09
    7    7   -0.33714600E-02  0.63256574E-10
    8    7    0.18857939E-02 -0.26883660E-09
    1    8    0.68440871E-02  0.31156722E-09
    2    8    0.89878465E-02  0.40916118E-09
    3    8   -0.12646875E-01 -0.35607027E-09
    4    8    0.10857594E-01  0.10533653E-10
    5    8   -0.61749079E-02 -0.30990498E-09
    6    8    0.16400496E-02  0.65317383E-10
    7    8    0.15852665E-02  0.35550173E-09
    8    8   -0.33602132E-02  0.75915108E-10

   -4    1    1
    1    1    0.82866891E-02 -0.47078522E-11
    2    1    0.94045436E-02  0.50060224E-09
    3    1   -0.16799795E-01  0.15436491E-09
    4    1    0.93173623E-02  0.27891812E-09
    5    1   -0.42201089E-02  0.12237953E-09
    6    1   -0.10019083E-02 -0.27928966E-09
    7    1    0.11548915E-01  0.11048621E-09
    8    1   -0.93040195E-02  0.12575694E-09
    1    2   -0.12045598E-02  0.65410234E-10
    2    2   -0.63388805E-02 -0.11210373E-09
    3    2   -0.11907606E-02  0.96810168E-10
    4    2    0.92193175E-02 -0.41477761E-09
    5    2   -0.55465667E-02  0.82751922E-10
    6    2    0.56836274E-02 -0.74928941E-10
    7    2   -0.57710966E-02  0.11007194E-10
    8    2   -0.52966154E-02  0.31056840E-09
    1    3   -0.16690290E-01 -0.67056007E-10
    2    3    0.93205328E-02  0.36679567E-09
    3    3    0.83556853E-02 -0.40296877E-10
    4    3    0.94021852E-02  0.15025788E-09
    5    3    0.11456688E-01 -0.51677005E-11
    6    3   -0.13167560E-02 -0.22363616E-09
    7    3   -0.40647731E-02 -0.24934748E-09
    8    3   -0.92291314E-02  0.17808648E-09
    1    4   -0.12091537E-02  0.99601541E-10
    2    4    0.92549648E-02  0.42454494E-09
    3    4   -0.12702387E-02  0.58282768E-10
    4    4   -0.63423849E-02 -0.12135478E-09
    5    4   -0.39687289E-02 -0.23254971E-09
    6    4    0.27230124E-02  0.10964292E-09
    7    4   -0.38030728E-02 -0.40278957E-09
    8    4    0.12398995E-01 -0.78097867E-11
    1    5   -0.26992677E-01 -0.21156698E-09
    2    5    0.14803814E-01  0.26738462E-09
    3    5    0.14800477E-01  0.54437788E-10
    4    5   -0.11819708E-01  0.13647902E-11
    5    5    0.13487488E-01  0.73660085E-10
    6    5    0.91204358E-02  0.49125275E-09
    7    5   -0.11745729E-01 -0.11746503E-09
    8    5    0.91379201E-02  0.41865625E-10
    1    6    0.14768277E-01 -0.30818090E-09
    2    6   -0.26990238E-01  0.10214208E-09
    3    6    0.14758686E-01 -0.17613063E-09
    4    6   -0.11824773E-01  0.41335861E-09
    5    6   -0.35508433E-03 -0.37640613E-10
    6    6   -0.10485374E-01  0.38796050E-11
    7    6   -0.52398207E-03 -0.49050061E-10
    8    6    0.35856102E-02 -0.24360241E-09
    1    7    0.14726486E-01 -0.17761783E-09
    2    7    0.14723149E-01  0.21408605E-09
    3    7   -0.26987800E-01  0.88022315E-11
    4    7   -0.11829838E-01  0.55866301E-10
    5    7   -0.11719597E-01  0.18691700E-09
    6    7    0.91849152E-02  0.68124060E-09
    7    7    0.13509032E-01  0.32515816E-10
    8    7    0.91190497E-02  0.75783448E-10
    1    8   -0.11980954E-01 -0.26844422E-09
    2    8   -0.11942368E-01 -0.31545497E-09
    3    8   -0.11903782E-01 -0.31351449E-09
    4    8    0.27799586E-01  0.19817374E-09
    5    8   -0.41857189E-03  0.66966104E-10
    6    8    0.35365233E-02  0.10177939E-09
    7    8   -0.42065784E-03  0.13293902E-09
    8    8   -0.10439164E-01  0.11630139E-09

   -4    1    2
    1    1    0.83431783E-02 -0.30474172E-10
    2    1   -0.16752445E-01 -0.12058395E-09
    3    1    0.93555827E-02  0.28313536E-09
    4    1    0.93433064E-02  0.23362297E-09
    5    1    0.54440345E-02  0.34641135E-09
    6    1   -0.96308962E-02 -0.72372244E-09
    7    1   -0.95996932E-02 -0.94716041E-10
    8    1   -0.95684904E-02 -0.14703731E-09
    1    2   -0.16754073E-01  0.50149666E-10
    2    2    0.83292349E-02  0.10834915E-09
    3    2    0.93738981E-02 -0.25957866E-09
    4    2    0.93616218E-02 -0.31253360E-09
    5    2    0.17218061E-02  0.94557672E-10
    6    2    0.23443268E-02 -0.21485630E-09
    7    2   -0.34898701E-02 -0.40074308E-09
    8    2   -0.34978957E-02  0.20406466E-09
    1    3   -0.11809821E-02  0.27539502E-10
    2    3   -0.11984359E-02 -0.64332373E-10
    3    3   -0.63561923E-02  0.74352906E-10
    4    3    0.92417702E-02 -0.30020933E-09
    5    3    0.17585620E-02  0.82082677E-10
    6    3   -0.34780617E-02  0.16210318E-09
    7    3    0.23192377E-02  0.43591379E-09
    8    3   -0.34997588E-02  0.29812993E-09
    1    4   -0.11844161E-02  0.91718620E-10
    2    4   -0.12018698E-02 -0.35935321E-10
    3    4    0.92106814E-02  0.39250586E-09
    4    4   -0.63543658E-02 -0.44604199E-10
    5    4    0.17953180E-02  0.19469273E-09
    6    4   -0.34799248E-02 -0.18800381E-09
    7    4   -0.34879504E-02 -0.64088163E-09
    8    4    0.22941485E-02  0.35063410E-10
    1    5   -0.72786640E-02 -0.11564471E-09
    2    5    0.40077662E-02 -0.17821675E-10
    3    5   -0.95727299E-03 -0.96708071E-10
    4    5   -0.98276006E-03 -0.72119499E-10
    5    5    0.13497696E-01  0.51798177E-10
    6    5   -0.11774357E-01 -0.33010027E-09
    7    5    0.91276407E-02 -0.23152973E-09
    8    5    0.91389076E-02 -0.13506891E-09
    1    6   -0.19340154E-02 -0.78634313E-10
    2    6    0.30621699E-02 -0.66202108E-10
    3    6   -0.98290317E-02  0.27988146E-09
    4    6   -0.98131870E-02  0.48379253E-09
    5    6   -0.11735742E-01  0.30752320E-09
    6    6    0.13496721E-01 -0.24575227E-10
    7    6    0.91330824E-02 -0.48417693E-09
    8    6    0.91443495E-02 -0.31305756E-09
    1    7    0.89474503E-02 -0.56632468E-11
    2    7    0.67899541E-02 -0.97278205E-11
    3    7    0.10894891E-01 -0.41087275E-10
    4    7   -0.12693452E-01  0.59296620E-09
    5    7   -0.40094297E-03  0.18552138E-10
    6    7   -0.39134536E-03 -0.11186189E-09
    7    7   -0.10469854E-01 -0.80000111E-10
    8    7    0.35677497E-02 -0.42205845E-09
    1    8    0.89737535E-02  0.22211816E-09
    2    8    0.68573435E-02  0.24758162E-09
    3    8   -0.12647801E-01 -0.30547146E-09
    4    8    0.10857797E-01  0.31308188E-10
    5    8   -0.41589873E-03  0.85918259E-10
    6    8   -0.40630091E-03 -0.15125180E-09
    7    8    0.35691750E-02  0.33666788E-09
    8    8   -0.10453327E-01  0.32830787E-10

   -4    2    0
    1    1   -0.29221272E-02  0.86455454E-10
    2    1    0.26217095E-02 -0.94247846E-10
    3    1   -0.69679638E-02  0.77593132E-11
    4    1    0.27514195E-02 -0.26052914E-09
    5    1   -0.72688535E-03 -0.13574014E-09
    6    1    0.33356144E-03 -0.27896804E-09
    7    1    0.53895037E-02  0.65529961E-10
    8    1    0.65818620E-02  0.74100012E-09
    1    2    0.27058489E-02  0.13387479E-09
    2    2   -0.29148024E-02 -0.35721912E-10
    3    2   -0.71191391E-02  0.41250876E-10
    4    2    0.25851980E-02 -0.14631919E-09
    5    2   -0.98054034E-02  0.18333986E-09
    6    2    0.60881616E-02 -0.60078921E-11
    7    2    0.44329220E-02  0.36862362E-09
    8    2   -0.96459000E-02  0.43287039E-09
    1    3    0.41637951E-02  0.59580723E-10
    2    3    0.43159429E-02  0.77395382E-10
    3    3    0.24778912E-02  0.70726244E-10
    4    3    0.44843687E-02 -0.12243928E-09
    5    3   -0.84085731E-02  0.66463193E-10
    6    3   -0.86699387E-03  0.10740498E-09
    7    3    0.83528920E-03 -0.65416532E-09
    8    3   -0.84125116E-02  0.59364427E-10
    1    4    0.25706107E-02  0.25670519E-09
    2    4    0.27126650E-02  0.84694664E-10
    3    4   -0.73464548E-02 -0.25481636E-09
    4    4   -0.28885392E-02 -0.25441302E-10
    5    4    0.67366475E-02 -0.57496697E-09
    6    4    0.65410211E-03  0.10434697E-09
    7    4    0.55281373E-02  0.16432346E-08
    8    4   -0.10365144E-02 -0.31688209E-10
    1    5    0.10800235E-01  0.70481121E-10
    2    5    0.92399815E-02  0.22895504E-09
    3    5    0.65766688E-02  0.13585870E-09
    4    5   -0.12759152E-01  0.32465943E-09
    5    5   -0.33861794E-02  0.56472781E-10
    6    5    0.18901005E-02 -0.78209411E-10
    7    5   -0.62997728E-02 -0.23456915E-09
    8    5    0.18599634E-02 -0.12393954E-09
    1    6   -0.71609424E-03  0.32130452E-09
    2    6   -0.74976744E-02 -0.10275587E-09
    3    6    0.39251442E-02 -0.15589148E-10
    4    6   -0.11081848E-02  0.83856517E-10
    5    6    0.15895731E-02  0.13208094E-09
    6    6   -0.33749327E-02 -0.66998098E-10
    7    6   -0.62563186E-02 -0.29907761E-09
    8    6    0.18948370E-02 -0.21086150E-10
    1    7   -0.99398914E-02 -0.48723673E-10
    2    7   -0.18634274E-02  0.91619050E-10
    3    7    0.31638218E-02  0.87968750E-10
    4    7   -0.97543084E-02  0.48889595E-10
    5    7    0.60338109E-02 -0.22979039E-09
    6    7    0.59946627E-02  0.19182322E-09
    7    7    0.35135934E-02 -0.89719527E-10
    8    7    0.58623605E-02 -0.14450071E-09
    1    8   -0.12645016E-01 -0.48355783E-09
    2    8    0.89734841E-02  0.41217803E-09
    3    8    0.68915228E-02  0.25219451E-09
    4    8    0.10888637E-01 -0.48885561E-10
    5    8    0.16257308E-02  0.12527691E-09
    6    8    0.15709476E-02  0.26553980E-10
    7    8   -0.61917628E-02 -0.45460744E-09
    8    8   -0.33447589E-02  0.10520641E-09

   -4    2    1
    1    1   -0.63215686E-02  0.36070473E-10
    2    1   -0.11968845E-02 -0.14998794E-09
    3    1   -0.12143382E-02  0.12860197E-10
    4    1    0.91968648E-02 -0.56369502E-09
    5    1    0.23550845E-02 -0.35287525E-09
    6    1   -0.34946042E-02  0.34852060E-09
    7    1    0.17335007E-02  0.10229651E-09
    8    1   -0.34896514E-02  0.53483553E-09
    1    2    0.93511784E-02 -0.39670899E-09
    2    2    0.83131395E-02  0.10182344E-09
    3    2   -0.16736012E-01  0.15771059E-09
    4    2    0.93579258E-02 -0.32316781E-09
    5    2   -0.34827957E-02 -0.18402342E-09
    6    2    0.23299954E-02 -0.12444113E-09
    7    2    0.17702566E-02  0.27914509E-09
    8    2   -0.34915146E-02  0.27536588E-09
    1    3    0.93694938E-02 -0.69614045E-10
    2    3   -0.16737639E-01 -0.14334291E-09
    3    3    0.82991961E-02 -0.10036022E-09
    4    3    0.93762412E-02  0.42666102E-10
    5    3   -0.96398993E-02 -0.56658910E-10
    6    3   -0.96086964E-02 -0.48268204E-09
    7    3    0.54863495E-02 -0.43511793E-09
    8    3   -0.95986660E-02  0.21670478E-11
    1    4    0.92992482E-02  0.60361952E-09
    2    4   -0.12775226E-02 -0.11878505E-09
    3    4   -0.12949764E-02  0.78449987E-10
    4    4   -0.63304041E-02 -0.51503600E-10
    5    4   -0.34802922E-02 -0.37964803E-09
    6    4   -0.34883178E-02 -0.11533908E-09
    7    4    0.17828645E-02  0.42776156E-09
    8    4    0.23209987E-02  0.97223940E-10
    1    5    0.10800032E-01  0.76847246E-10
    2    5    0.65634124E-02  0.14290131E-09
    3    5    0.92540745E-02  0.12880160E-09
    4    5   -0.12758226E-01  0.27408737E-09
    5    5   -0.10500894E-01 -0.80810338E-10
    6    5   -0.48772135E-03 -0.75809040E-10
    7    5   -0.47812350E-03  0.41782054E-10
    8    5    0.36034707E-02 -0.15946591E-09
    1    6   -0.99344994E-02  0.33678550E-09
    2    6    0.31698325E-02 -0.10732897E-09
    3    6   -0.18459003E-02  0.15672710E-10
    4    6   -0.97489164E-02  0.38579266E-09
    5    6    0.91722685E-02 -0.49059534E-09
    6    6    0.13499799E-01  0.11979605E-10
    7    6   -0.11729584E-01  0.17321666E-09
    8    6    0.91126204E-02 -0.28811509E-09
    1    7   -0.72489840E-03  0.41066456E-11
    2    7    0.39138052E-02 -0.13792293E-09
    3    7   -0.75116898E-02  0.27133569E-09
    4    7   -0.11169890E-02 -0.19168259E-09
    5    7    0.91777102E-02 -0.90613987E-10
    6    7   -0.11690968E-01 -0.20720457E-09
    7    7    0.13498825E-01  0.50193103E-10
    8    7    0.91180622E-02 -0.14746539E-10
    1    8   -0.12644090E-01 -0.51324495E-09
    2    8    0.68782664E-02  0.30755173E-09
    3    8    0.89875770E-02  0.22404305E-09
    4    8    0.10888434E-01 -0.39792667E-10
    5    8    0.35038718E-02  0.17037967E-09
    6    8   -0.43292883E-03 -0.18337263E-09
    7    8   -0.42333096E-03  0.10624732E-09
    8    8   -0.10425001E-01  0.66482271E-10

   -4    2    2
    1    1   -0.29265644E-02 -0.14385180E-10
    2    1   -0.69279163E-02  0.12324723E-09
    3    1    0.26080314E-02 -0.10370377E-09
    4    1    0.27500859E-02 -0.26980451E-09
    5    1    0.23416594E-02 -0.38335076E-09
    6    1    0.17397274E-02 -0.35757872E-09
    7    1   -0.34879313E-02 -0.82175577E-10
    8    1   -0.34959569E-02  0.52298626E-09
    1    2    0.41514074E-02  0.20280417E-10
    2    2    0.24725473E-02 -0.21528692E-10
    3    2    0.43198330E-02 -0.20876783E-10
    4    2    0.44719808E-02 -0.17575863E-09
    5    2   -0.96248115E-02  0.36305101E-09
    6    2    0.54651920E-02  0.14918371E-09
    7    2   -0.96147812E-02  0.54337152E-09
    8    2   -0.95835782E-02  0.47629288E-09
    1    3    0.27354985E-02  0.12566451E-09
    2    3   -0.71552321E-02 -0.12061768E-10
    3    3   -0.29003012E-02  0.37971463E-10
    4    3    0.26148476E-02 -0.15990776E-09
    5    3   -0.34847345E-02 -0.88983198E-10
    6    3    0.17523353E-02 -0.14060801E-09
    7    3    0.23326628E-02  0.46601287E-09
    8    3   -0.34934533E-02  0.41165361E-09
    1    4    0.25692769E-02  0.20574955E-09
    2    4   -0.73064074E-02 -0.21264123E-09
    3    4    0.26989871E-02  0.11976117E-09
    4    4   -0.28929764E-02 -0.53200576E-10
    5    4   -0.34865976E-02 -0.40865158E-09
    6    4    0.17890912E-02 -0.70256267E-10
    7    4   -0.34816450E-02 -0.54278851E-09
    8    4    0.23075736E-02  0.15851527E-09
    1    5    0.46096628E-02  0.43165519E-09
    2    5   -0.38958812E-02 -0.11684324E-09
    3    5    0.20209659E-02  0.14061644E-10
    4    5    0.19919443E-02  0.78861055E-10
    5    5   -0.33939066E-02 -0.20249601E-10
    6    5   -0.62913453E-02 -0.22985837E-10
    7    5    0.19095830E-02  0.12033819E-09
    8    5    0.18547998E-02 -0.14713662E-09
    1    6   -0.56111751E-02 -0.14392888E-10
    2    6    0.17403556E-01  0.17504393E-09
    3    6   -0.55683309E-02 -0.46805766E-10
    4    6   -0.55972211E-02  0.26291854E-09
    5    6    0.60566177E-02 -0.25333574E-09
    6    6    0.35175651E-02  0.21961651E-09
    7    6    0.59243156E-02 -0.58364046E-10
    8    6    0.58851673E-02 -0.16089512E-09
    1    7    0.20261641E-02 -0.34030334E-10
    2    7   -0.38495674E-02 -0.21959943E-09
    3    7    0.46176545E-02 -0.45329263E-09
    4    7    0.19468160E-02  0.25010477E-09
    5    7    0.15856935E-02 -0.14806073E-09
    6    7   -0.62267895E-02  0.16916752E-09
    7    7   -0.33637328E-02 -0.31514441E-10
    8    7    0.18909575E-02 -0.31945457E-09
    1    8    0.20181467E-02 -0.15748781E-09
    2    8   -0.38564143E-02 -0.15121491E-09
    3    8    0.19652428E-02 -0.70624017E-10
    4    8    0.46560282E-02 -0.19605128E-09
    5    8    0.16205672E-02  0.40011028E-10
    6    8   -0.61833354E-02 -0.30392207E-09
    7    8    0.15904301E-02  0.22817165E-09
    8    8   -0.33524860E-02 -0.77435575E-10

   -3   -3    3
    1    1    0.48645273E-02 -0.42912015E-17
    2    1   -0.16458951E-02 -0.58115042E-07
    3    1   -0.16474077E-02 -0.36663396E-07
    4    1   -0.16489204E-02 -0.77232319E-07
    5    1   -0.21420344E-02 -0.13227797E-07
    6    1   -0.15246813E-02 -0.87287119E-07
    7    1    0.14004636E-02  0.93294012E-09
    8    1    0.14070023E-02 -0.33301525E-10
    1    2   -0.16458951E-02  0.58115042E-07
    2    2    0.48704208E-02  0.12115500E-16
    3    2   -0.16489204E-02  0.21481707E-07
    4    2   -0.16504331E-02 -0.19111305E-07
    5    2    0.51912978E-03 -0.18366054E-08
    6    2    0.20918061E-02  0.10217593E-07
    7    2    0.51999231E-03 -0.48220307E-08
    8    2    0.52533287E-03 -0.19271725E-08
    1    3   -0.16474077E-02  0.36663396E-07
    2    3   -0.16489204E-02 -0.21481707E-07
    3    3    0.48763142E-02  0.15313437E-16
    4    3   -0.16519457E-02 -0.40512373E-07
    5    3    0.13945464E-02  0.10921572E-08
    6    3   -0.15252280E-02 -0.45442718E-07
    7    3   -0.21615660E-02  0.17980274E-07
    8    3    0.14214730E-02 -0.16276831E-08
    1    4   -0.16489204E-02  0.77232319E-07
    2    4   -0.16504331E-02  0.19111305E-07
    3    4   -0.16519457E-02  0.40512373E-07
    4    4    0.48822076E-02  0.49556601E-17
    5    4    0.13959648E-02  0.14587860E-08
    6    4   -0.15228709E-02  0.30199617E-08
    7    4    0.14177601E-02 -0.36793126E-09
    8    4   -0.21701936E-02  0.54411499E-08
    1    5   -0.21420344E-02  0.13227797E-07
    2    5    0.51912978E-03  0.18366054E-08
    3    5    0.13945464E-02 -0.10921572E-08
    4    5    0.13959648E-02 -0.14587860E-08
    5    5    0.48846387E-02  0.21148347E-17
    6    5   -0.12769954E-02 -0.46125258E-07
    7    5   -0.12797545E-02  0.33091380E-07
    8    5   -0.12825136E-02 -0.38211383E-07
    1    6   -0.15246813E-02  0.87287119E-07
    2    6    0.20918061E-02 -0.10217593E-07
    3    6   -0.15252280E-02  0.45442718E-07
    4    6   -0.15228709E-02 -0.30199618E-08
    5    6   -0.12769954E-02  0.46125258E-07
    6    6    0.48859705E-02 -0.59740494E-17
    7    6   -0.12825135E-02  0.79155631E-07
    8    6   -0.12852726E-02  0.78637583E-08
    1    7    0.14004636E-02 -0.93294014E-09
    2    7    0.51999231E-03  0.48220307E-08
    3    7   -0.21615660E-02 -0.17980274E-07
    4    7    0.14177601E-02  0.36793124E-09
    5    7   -0.12797545E-02 -0.33091380E-07
    6    7   -0.12825135E-02 -0.79155631E-07
    7    7    0.48873022E-02  0.10493761E-16
    8    7   -0.12880317E-02 -0.71270950E-07
    1    8    0.14070023E-02  0.33301514E-10
    2    8    0.52533287E-03  0.19271726E-08
    3    8    0.14214730E-02  0.16276831E-08
    4    8   -0.21701936E-02 -0.54411499E-08
    5    8   -0.12825136E-02  0.38211383E-07
    6    8   -0.12852726E-02 -0.78637582E-08
    7    8   -0.12880317E-02  0.71270950E-07
    8    8    0.48886339E-02 -0.12674946E-16

   -3   -2    2
    1    1    0.28420482E-02 -0.12512173E-12
    2    1   -0.22855387E-02 -0.28125864E-08
    3    1   -0.11704619E-02  0.12107010E-08
    4    1   -0.22980405E-02 -0.34875804E-08
    5    1   -0.69481438E-03  0.10446216E-09
    6    1   -0.27871300E-02  0.58588240E-09
    7    1    0.53026069E-02 -0.16339377E-09
    8    1    0.45398567E-02  0.82083689E-10
    1    2    0.25796547E-03 -0.32321394E-08
    2    2    0.10267549E-02  0.10602490E-08
    3    2   -0.23032861E-02  0.10807160E-08
    4    2   -0.17931012E-02  0.15774261E-08
    5    2   -0.27924078E-02 -0.60166348E-10
    6    2   -0.69364390E-03  0.57388723E-09
    7    2    0.53014704E-02  0.26610538E-09
    8    2    0.45298436E-02  0.44442635E-10
    1    3    0.16259109E-02  0.83020499E-08
    2    3    0.23694928E-03  0.94066457E-09
    3    3    0.28406609E-02 -0.34616831E-09
    4    3    0.22873234E-03  0.32793347E-08
    5    3   -0.17090573E-02 -0.45957194E-09
    6    3   -0.17012351E-02 -0.97959469E-09
    7    3   -0.98444275E-03 -0.95400865E-09
    8    3   -0.26633213E-02 -0.68331016E-10
    1    4    0.24253129E-03 -0.55839235E-08
    2    4   -0.18119352E-02  0.87179594E-09
    3    4   -0.22723035E-02  0.18022632E-08
    4    4    0.10311578E-02  0.10653635E-08
    5    4    0.10978799E-02  0.12278061E-08
    6    4    0.10990458E-02  0.76066901E-10
    7    4    0.11325746E-02  0.21742955E-08
    8    4   -0.36458150E-02 -0.12241958E-09
    1    5   -0.90082183E-03 -0.50990752E-09
    2    5    0.52641810E-02  0.80883954E-10
    3    5    0.52630445E-02  0.16854056E-09
    4    5    0.11605749E-02 -0.95504653E-09
    5    5    0.93631001E-03 -0.15481382E-08
    6    5   -0.18821833E-02  0.35316793E-08
    7    5   -0.40965755E-02  0.53670456E-08
    8    5   -0.18971224E-02  0.25439126E-08
    1    6   -0.17582213E-02  0.11731910E-08
    2    6   -0.66159693E-03 -0.34422793E-10
    3    6   -0.27725103E-02 -0.27190889E-09
    4    6    0.11142107E-02  0.61369082E-09
    5    6   -0.42087695E-04  0.81364248E-09
    6    6    0.32242764E-02 -0.20971116E-09
    7    6   -0.18788126E-02 -0.74107557E-08
    8    6    0.30939836E-03  0.13459781E-09
    1    7   -0.17503990E-02  0.20067746E-09
    2    7   -0.27672325E-02  0.19519521E-09
    3    7   -0.66042648E-03 -0.32940313E-10
    4    7    0.11153765E-02 -0.15874115E-08
    5    7    0.62539180E-03  0.20578450E-08
    6    7   -0.76608221E-04 -0.32865030E-08
    7    7    0.94923379E-03  0.35075962E-09
    8    7   -0.45782238E-04 -0.34561039E-08
    1    8   -0.26606337E-02  0.29079767E-09
    2    8    0.45353034E-02 -0.12267269E-09
    3    8    0.45252903E-02 -0.14107723E-09
    4    8   -0.36613505E-02  0.30296982E-09
    5    8   -0.57077012E-04  0.97427067E-09
    6    8    0.32968484E-03 -0.91140274E-09
    7    8   -0.18815420E-02 -0.64671928E-08
    8    8    0.32248727E-02 -0.22898010E-09

   -3   -2    3
    1    1    0.28400837E-02 -0.44408129E-09
    2    1   -0.11869658E-02  0.21521115E-08
    3    1   -0.22855880E-02 -0.68483335E-09
    4    1   -0.22880132E-02 -0.23621223E-08
    5    1    0.20908552E-02  0.19501994E-07
    6    1    0.51876386E-03  0.48374684E-08
    7    1    0.52410439E-03  0.92378546E-09
    8    1    0.52944494E-03  0.38410190E-08
    1    2    0.16356981E-02  0.13744259E-07
    2    2    0.28371153E-02 -0.61335241E-09
    3    2    0.24366626E-03 -0.23961748E-08
    4    2    0.23856330E-03  0.15248971E-08
    5    2   -0.15303474E-02  0.30740869E-07
    6    2   -0.21546251E-02 -0.72987647E-08
    7    2    0.14060458E-02  0.17960478E-08
    8    2    0.14125844E-02  0.84617535E-09
    1    3    0.24722679E-03 -0.46371289E-08
    2    3   -0.22867723E-02  0.20127514E-09
    3    3    0.10234859E-02 -0.23793442E-09
    4    3   -0.18101762E-02 -0.12246365E-09
    5    3   -0.15279904E-02  0.43250984E-08
    6    3    0.14023329E-02  0.87371780E-09
    7    3   -0.21632527E-02  0.17362450E-07
    8    3    0.14140028E-02 -0.15819989E-10
    1    4    0.24212372E-03 -0.85738549E-08
    2    4   -0.22891976E-02  0.17902120E-08
    3    4   -0.18101761E-02  0.43658700E-09
    4    4    0.10386870E-02 -0.24467446E-09
    5    4   -0.15256333E-02  0.52740168E-07
    6    4    0.14037513E-02  0.11969278E-08
    7    4    0.14102899E-02  0.12606998E-08
    8    4   -0.21718802E-02  0.48519089E-08
    1    5    0.17861501E-02 -0.87139545E-09
    2    5   -0.55404179E-02 -0.11691327E-08
    3    5    0.33798071E-02  0.43555727E-09
    4    5    0.33702093E-02  0.16197979E-08
    5    5    0.93822953E-03  0.51026026E-09
    6    5   -0.41002367E-02 -0.66973603E-08
    7    5   -0.18864076E-02 -0.27704028E-08
    8    5   -0.18934994E-02  0.37473075E-08
    1    6   -0.54182007E-02  0.59349472E-08
    2    6    0.59781408E-02 -0.92904563E-09
    3    6    0.97422505E-03 -0.65474413E-09
    4    6    0.97957459E-03 -0.12404421E-08
    5    6    0.62088683E-03 -0.52070528E-08
    6    6    0.94332450E-03  0.85751597E-09
    7    6   -0.43607829E-04  0.40316609E-08
    8    6   -0.50242697E-04 -0.77961388E-09
    1    7    0.32761110E-02 -0.34446518E-09
    2    7    0.13564790E-02  0.14442121E-08
    3    7   -0.17718816E-02 -0.12134768E-08
    4    7   -0.66425438E-05 -0.42600456E-09
    5    7   -0.42704783E-04 -0.22344924E-08
    6    7   -0.18836286E-02  0.80926720E-08
    7    7    0.32239855E-02  0.71248164E-10
    8    7    0.30985415E-03 -0.65352131E-08
    1    8    0.32758252E-02  0.81837692E-09
    2    8    0.13725245E-02 -0.98141300E-10
    3    8    0.41769054E-05  0.36430835E-09
    4    8   -0.17792435E-02 -0.10135736E-09
    5    8   -0.49339625E-04  0.26056021E-08
    6    8   -0.18907205E-02  0.16532629E-08
    7    8    0.30985420E-03  0.60962957E-08
    8    8    0.32304031E-02  0.80796245E-10

   -3   -1    1
    1    1   -0.68120510E-02 -0.23474724E-09
    2    1    0.46061995E-02  0.28960788E-09
    3    1   -0.57651589E-03 -0.84061021E-10
    4    1    0.44805994E-02  0.30683060E-09
    5    1    0.55080915E-02  0.51647103E-10
    6    1    0.26105702E-02 -0.38118594E-09
    7    1   -0.84922739E-02 -0.79162699E-10
    8    1   -0.65078697E-03  0.20086821E-09
    1    2   -0.13335242E-02  0.70215861E-09
    2    2    0.91845080E-03  0.73965207E-10
    3    2    0.45247023E-02 -0.14083676E-09
    4    2   -0.48609473E-02  0.80695702E-10
    5    2    0.55056265E-02 -0.14529931E-09
    6    2    0.18528580E-02  0.25971998E-09
    7    2   -0.41585676E-02 -0.10966597E-09
    8    2   -0.26449382E-02  0.17999908E-09
    1    3    0.21084776E-02 -0.25444679E-09
    2    3   -0.13334295E-02 -0.16481501E-09
    3    3   -0.67985640E-02  0.20110847E-09
    4    3   -0.11447286E-02 -0.86058878E-10
    5    3   -0.34912392E-02  0.21506787E-09
    6    3    0.16351703E-03  0.26825175E-10
    7    3    0.99406027E-02  0.40272113E-09
    8    3    0.40390931E-03  0.26164528E-09
    1    4   -0.12451193E-02  0.65830719E-09
    2    4   -0.47205320E-02  0.52513715E-10
    3    4    0.44582400E-02 -0.18349712E-09
    4    4    0.83210694E-03  0.65833690E-10
    5    4    0.59383392E-03  0.13359786E-10
    6    4   -0.26771915E-02 -0.26873226E-09
    7    4   -0.23551132E-02 -0.42212446E-09
    8    4    0.57769992E-02  0.17124181E-10
    1    5    0.97846182E-02  0.31260140E-09
    2    5   -0.41839063E-02 -0.86077760E-11
    3    5   -0.84048577E-02  0.58490698E-10
    4    5   -0.24316301E-02  0.22553604E-09
    5    5   -0.58088051E-02  0.28033653E-10
    6    5    0.19721569E-03 -0.31467176E-09
    7    5    0.78648578E-02 -0.61647722E-09
    8    5    0.24959141E-03 -0.34790581E-09
    1    6    0.19740462E-03  0.57742128E-10
    2    6    0.17335180E-02 -0.35460664E-09
    3    6    0.26960445E-02  0.17780630E-09
    4    6   -0.27074097E-02  0.16865268E-09
    5    6    0.16190261E-02  0.23491444E-09
    6    6    0.14779490E-02 -0.43070794E-10
    7    6    0.24866780E-04  0.44670409E-09
    8    6   -0.62937096E-02  0.30987651E-09
    1    7   -0.33729507E-02 -0.19832913E-09
    2    7    0.55437905E-02 -0.13950738E-09
    3    7    0.53835607E-02 -0.72513522E-10
    4    7    0.44814573E-03 -0.62977550E-10
    5    7   -0.26073057E-02  0.38067069E-10
    6    7    0.16848016E-02  0.17964235E-09
    7    7   -0.58025089E-02 -0.59846939E-10
    8    7    0.15904130E-02  0.12786419E-09
    1    8    0.44267798E-03 -0.50818858E-09
    2    8   -0.26317413E-02 -0.19838849E-09
    3    8   -0.71222709E-03 -0.15712929E-09
    4    8    0.58489605E-02  0.32568426E-10
    5    8    0.15754958E-02  0.32051430E-09
    6    8   -0.63173979E-02 -0.33225659E-09
    7    8    0.30278413E-03  0.36016213E-09
    8    8    0.14337909E-02 -0.41903949E-10

   -3   -1    2
    1    1   -0.83001440E-02 -0.30939001E-11
    2    1    0.33927449E-02 -0.71600736E-10
    3    1    0.34317330E-02 -0.19634929E-10
    4    1    0.53993414E-03 -0.15102023E-08
    5    1    0.59946281E-02  0.11445052E-08
    6    1    0.13129588E-02  0.16791608E-08
    7    1   -0.56036805E-02  0.13622715E-09
    8    1    0.13811857E-02  0.14937668E-08
    1    2    0.37066824E-02 -0.19688425E-10
    2    2   -0.52128818E-02  0.57316530E-10
    3    2   -0.18456651E-02 -0.74272472E-11
    4    2   -0.22591188E-02  0.56841610E-09
    5    2    0.99248500E-03  0.12166275E-08
    6    2   -0.18175066E-02 -0.57911002E-09
    7    2    0.34687386E-02 -0.95431430E-09
    8    2   -0.19395025E-04  0.24367321E-09
    1    3    0.36708328E-02 -0.36282223E-09
    2    3   -0.17902450E-02 -0.23810892E-09
    3    3   -0.51927537E-02  0.71559071E-10
    4    3   -0.23340333E-02  0.58490071E-09
    5    3   -0.54218999E-02 -0.73566793E-09
    6    3    0.33647907E-02 -0.91841166E-09
    7    3    0.17266301E-02 -0.47503875E-09
    8    3    0.32882185E-02 -0.96734408E-09
    1    4    0.23753908E-03  0.76942843E-09
    2    4   -0.26388618E-02 -0.19261775E-10
    3    4   -0.25762706E-02  0.14130850E-10
    4    4    0.20413995E-02 -0.14271757E-09
    5    4    0.10094974E-02  0.13433908E-08
    6    4   -0.70037836E-04  0.32107631E-09
    7    4    0.33380148E-02 -0.14640634E-08
    8    4   -0.17564177E-02  0.29816169E-09
    1    5    0.97671320E-02  0.41119079E-09
    2    5   -0.84143411E-02 -0.88705908E-10
    3    5   -0.41654750E-02  0.38710007E-11
    4    5   -0.24546576E-02  0.26587286E-09
    5    5   -0.11222130E-01 -0.18504170E-09
    6    5    0.37220730E-02 -0.38616570E-10
    7    5    0.37065443E-02  0.17831006E-09
    8    5   -0.22513992E-02  0.47682752E-10
    1    6   -0.33487816E-02 -0.17318591E-09
    2    6    0.54229172E-02 -0.57180111E-11
    3    6    0.54287500E-02 -0.10415167E-09
    4    6    0.53639235E-03  0.12929853E-09
    5    6    0.34924045E-02 -0.86138744E-09
    6    6   -0.38807548E-02  0.96620802E-10
    7    6    0.21717535E-03  0.60460153E-09
    8    6   -0.15301920E-02 -0.24338754E-09
    1    7    0.25585944E-03 -0.55862809E-10
    2    7    0.25805299E-02 -0.40416457E-09
    3    7    0.18167387E-02  0.61049937E-10
    4    7   -0.26829407E-02 -0.29383445E-09
    5    7    0.35005812E-02  0.25331238E-09
    6    7    0.10915481E-03 -0.54749735E-10
    7    7   -0.38776501E-02  0.12993150E-09
    8    7   -0.14991810E-02  0.40020856E-09
    1    8    0.42231767E-03 -0.41769591E-09
    2    8   -0.65286179E-03 -0.17929745E-09
    3    8   -0.26481961E-02 -0.26427750E-09
    4    8    0.57977627E-02  0.53412357E-10
    5    8   -0.14329873E-02  0.61852549E-09
    6    8   -0.18274796E-02  0.10280526E-09
    7    8   -0.18882728E-02 -0.18898504E-09
    8    8    0.10755352E-02 -0.31148119E-10

   -3   -1    3
    1    1   -0.68117400E-02  0.58689102E-10
    2    1   -0.52455106E-03 -0.16234442E-09
    3    1    0.45291665E-02  0.24404475E-09
    4    1    0.45304177E-02  0.72015994E-09
    5    1    0.59888683E-02  0.51400097E-09
    6    1   -0.55792955E-02 -0.22260870E-08
    7    1    0.13431898E-02 -0.11603054E-09
    8    1    0.13592351E-02  0.14856022E-08
    1    2    0.20476442E-02 -0.75081963E-09
    2    2   -0.68179167E-02  0.88480522E-10
    3    2   -0.12534589E-02  0.15173351E-09
    4    2   -0.12396898E-02  0.39094110E-10
    5    2   -0.54192845E-02  0.17171656E-08
    6    2    0.17828930E-02  0.70940638E-09
    7    2    0.32922632E-02  0.73421596E-09
    8    2    0.32919774E-02 -0.40193396E-09
    1    3   -0.12704175E-02  0.11873521E-09
    2    3    0.45140120E-02  0.55442781E-09
    3    3    0.89029590E-03 -0.15494252E-09
    4    3   -0.48022277E-02 -0.25054035E-09
    5    3    0.99633961E-03 -0.38535123E-09
    6    3    0.33855581E-02  0.13874723E-08
    7    3   -0.17797581E-02  0.12160103E-08
    8    3   -0.56305548E-05 -0.26465797E-09
    1    4   -0.12566484E-02  0.18529144E-09
    2    4    0.45152633E-02  0.14414806E-09
    3    4   -0.48022278E-02 -0.87528856E-11
    4    4    0.88039504E-03 -0.17490607E-09
    5    4    0.10016892E-02  0.22983438E-09
    6    4    0.33759605E-02  0.15262449E-09
    7    4   -0.16449980E-04  0.52932392E-09
    8    4   -0.17871200E-02  0.17920534E-09
    1    5   -0.44778456E-02 -0.25290952E-09
    2    5    0.36761500E-02  0.31263558E-09
    3    5   -0.42619622E-03 -0.17044135E-12
    4    5   -0.42866335E-03 -0.48071761E-09
    5    5   -0.58099249E-02 -0.28850807E-10
    6    5    0.78600116E-02  0.12403777E-08
    7    5    0.23011334E-03  0.36320613E-09
    8    5    0.24256747E-03 -0.18064454E-09
    1    6    0.49541605E-03 -0.83307539E-09
    2    6   -0.13456171E-01  0.25728248E-09
    3    6    0.35847565E-02 -0.33347603E-09
    4    6    0.35669519E-02 -0.38521589E-09
    5    6   -0.26019219E-02  0.23951286E-10
    6    6   -0.58107427E-02  0.40335776E-09
    7    6    0.16086104E-02 -0.41839691E-09
    8    6    0.16088301E-02 -0.43875635E-09
    1    7    0.71350991E-02 -0.74853394E-10
    2    7    0.11343215E-01  0.42481724E-09
    3    7   -0.52068999E-03  0.35292724E-10
    4    7   -0.58739182E-02  0.50086699E-09
    5    7    0.15888199E-02 -0.22639866E-09
    6    7    0.21681675E-03 -0.20581759E-09
    7    7    0.14669731E-02 -0.46585728E-10
    8    7   -0.63259639E-02 -0.39986058E-09
    1    8    0.71010727E-02  0.55917631E-09
    2    8    0.11298489E-01  0.46204897E-09
    3    8   -0.58941175E-02 -0.34930582E-09
    4    8   -0.47728473E-03  0.25434399E-10
    5    8    0.15890396E-02 -0.19837115E-09
    6    8    0.22927069E-03  0.31542994E-09
    7    8   -0.63259638E-02  0.23698263E-09
    8    8    0.14530290E-02 -0.58261528E-10

   -3    0    0
    1    1    0.23238965E-01 -0.11820252E-14
    2    1   -0.12855030E-01 -0.57308623E-09
    3    1    0.26144364E-01  0.81737629E-10
    4    1   -0.12929931E-01 -0.34863637E-09
    5    1    0.28912837E-02 -0.14844092E-09
    6    1   -0.32058870E-01 -0.81059154E-09
    7    1    0.16573771E-01 -0.93128090E-10
    8    1    0.24421078E-02 -0.12928974E-09
    1    2   -0.12855030E-01  0.57308699E-09
    2    2    0.14900530E-01 -0.11925166E-14
    3    2   -0.12949246E-01  0.32327266E-09
    4    2   -0.39350442E-02  0.33863790E-09
    5    2   -0.20284497E-01  0.27894065E-09
    6    2    0.27142837E-01  0.29673793E-10
    7    2   -0.20373436E-01  0.82722834E-10
    8    2    0.21543238E-01 -0.49294354E-09
    1    3    0.26144364E-01 -0.81736864E-10
    2    3   -0.12949246E-01 -0.32327192E-09
    3    3    0.23379904E-01 -0.11911802E-14
    4    3   -0.12818530E-01 -0.68182344E-10
    5    3    0.16517882E-01 -0.18630801E-09
    6    3   -0.32201479E-01 -0.75681935E-09
    7    3    0.30245742E-02 -0.18359797E-09
    8    3    0.23949046E-02 -0.16101118E-09
    1    4   -0.12929931E-01  0.34863712E-09
    2    4   -0.39350442E-02 -0.33863709E-09
    3    4   -0.12818530E-01  0.68183088E-10
    4    4    0.14747002E-01 -0.11820862E-14
    5    4    0.39937480E-02 -0.47886178E-10
    6    4    0.15587543E-01  0.53030023E-09
    7    4    0.40034730E-02 -0.11399228E-09
    8    4   -0.31999185E-01  0.34568334E-09
    1    5    0.28912837E-02  0.14844141E-09
    2    5   -0.20284497E-01 -0.27894067E-09
    3    5    0.16517882E-01  0.18630791E-09
    4    5    0.39937480E-02  0.47886139E-10
    5    5    0.61019857E-02 -0.11664065E-14
    6    5   -0.12998682E-01 -0.66811614E-09
    7    5    0.53872653E-02 -0.27351893E-09
    8    5   -0.13025813E-01 -0.65210845E-10
    1    6   -0.32058870E-01  0.81059250E-09
    2    6    0.27142837E-01 -0.29674376E-10
    3    6   -0.32201479E-01  0.75682025E-09
    4    6    0.15587543E-01 -0.53029928E-09
    5    6   -0.12998682E-01  0.66811690E-09
    6    6    0.34045086E-01 -0.11668861E-14
    7    6   -0.13168814E-01  0.80221885E-09
    8    6    0.13606879E-01 -0.33349594E-09
    1    7    0.16573771E-01  0.93128038E-10
    2    7   -0.20373436E-01 -0.82722868E-10
    3    7    0.30245742E-02  0.18359842E-09
    4    7    0.40034730E-02  0.11399223E-09
    5    7    0.53872653E-02  0.27351975E-09
    6    7   -0.13168814E-01 -0.80221807E-09
    7    7    0.60890093E-02 -0.11548551E-14
    8    7   -0.12992483E-01 -0.11316024E-09
    1    8    0.24421078E-02  0.12928983E-09
    2    8    0.21543238E-01  0.49294355E-09
    3    8    0.23949046E-02  0.16101118E-09
    4    8   -0.31999185E-01 -0.34568297E-09
    5    8   -0.13025813E-01  0.65211609E-10
    6    8    0.13606879E-01  0.33349684E-09
    7    8   -0.12992483E-01  0.11316103E-09
    8    8    0.33990214E-01 -0.11634709E-14

   -3    0    1
    1    1    0.33552371E-03 -0.34890049E-10
    2    1    0.19121973E-01  0.36992211E-09
    3    1   -0.15686237E-01 -0.40129004E-10
    4    1   -0.34678627E-02 -0.54149804E-10
    5    1   -0.13473821E-01 -0.27451192E-09
    6    1    0.11428184E-01  0.39209716E-09
    7    1    0.37680291E-02 -0.27638680E-10
    8    1    0.11275091E-01 -0.10511262E-09
    1    2   -0.99967167E-02 -0.35721512E-10
    2    2   -0.91796183E-02 -0.71308126E-10
    3    2    0.70436133E-02 -0.20185032E-09
    4    2    0.40328695E-02 -0.23014426E-09
    5    2    0.36113088E-02  0.26357506E-09
    6    2   -0.39471889E-03 -0.66745409E-10
    7    2   -0.56157245E-03  0.80408662E-09
    8    2   -0.58855839E-02  0.32707896E-09
    1    3   -0.52501731E-02 -0.68670531E-10
    2    3    0.97190149E-03  0.77662004E-10
    3    3   -0.96120105E-02 -0.55812473E-10
    4    3    0.61166674E-03  0.31485909E-09
    5    3    0.45554511E-03 -0.48004459E-10
    6    3    0.69215368E-02 -0.87167509E-10
    7    3   -0.43470053E-02 -0.35374996E-09
    8    3    0.70932785E-02 -0.36699040E-09
    1    4    0.65534216E-02 -0.15239917E-09
    2    4    0.11615115E-01  0.47712848E-09
    3    4    0.91929318E-02  0.23296261E-09
    4    4   -0.57716727E-02  0.62593677E-10
    5    4    0.35512588E-02  0.25445235E-09
    6    4   -0.58052370E-02 -0.14239729E-09
    7    4   -0.29424332E-03  0.10224678E-08
    8    4   -0.51838454E-03 -0.28374498E-10
    1    5   -0.46925060E-02 -0.65672912E-10
    2    5   -0.13821268E-01 -0.47775702E-09
    3    5   -0.13785170E-01 -0.34778144E-09
    4    5    0.14670355E-01  0.12477313E-09
    5    5    0.45142264E-02 -0.58536530E-10
    6    5   -0.15536884E-02  0.14981679E-09
    7    5    0.52500380E-02  0.27394413E-09
    8    5    0.14033202E-02 -0.26913313E-10
    1    6    0.32233180E-02  0.13811187E-09
    2    6   -0.13203009E-01  0.33808095E-10
    3    6    0.37480490E-01 -0.78322679E-09
    4    6   -0.97650912E-02  0.27730381E-09
    5    6    0.93607250E-02 -0.30808214E-09
    6    6   -0.17184429E-01 -0.14140427E-09
    7    6   -0.33092959E-02  0.16120101E-09
    8    6   -0.11614684E-01  0.36295080E-09
    1    7    0.32001338E-02 -0.37695907E-10
    2    7    0.37424176E-01  0.61522045E-09
    3    7   -0.13190433E-01 -0.35502747E-09
    4    7   -0.98146297E-02  0.71315551E-10
    5    7   -0.12219166E-01  0.31829949E-09
    6    7    0.14757252E-01  0.84884736E-09
    7    7    0.51908155E-03  0.99268198E-10
    8    7    0.42554639E-02  0.29222371E-12
    1    8   -0.69004010E-02 -0.28206177E-09
    2    8   -0.53231853E-01 -0.18667892E-08
    3    8   -0.53218641E-01 -0.13227359E-08
    4    8    0.46123323E-01  0.44905598E-09
    5    8   -0.23712959E-02 -0.44071053E-10
    6    8    0.11851281E-01  0.58499163E-09
    7    8    0.11003183E-01  0.58097202E-10
    8    8   -0.13749735E-01  0.20753343E-10

   -3    0    2
    1    1    0.36489269E-03  0.55374979E-10
    2    1   -0.15605349E-01 -0.28413805E-09
    3    1    0.19069138E-01  0.82404162E-10
    4    1   -0.34390730E-02 -0.52960661E-10
    5    1    0.65356151E-03  0.49595601E-09
    6    1   -0.83241795E-02 -0.52722861E-09
    7    1   -0.83136743E-02 -0.11326134E-09
    8    1   -0.71339139E-03  0.30395261E-09
    1    2   -0.53423056E-02 -0.14178946E-09
    2    2   -0.96477727E-02  0.16715865E-10
    3    2    0.10336614E-02 -0.38799385E-10
    4    2    0.53855856E-03  0.61533102E-10
    5    2    0.54351896E-02  0.40122453E-09
    6    2   -0.82183341E-03 -0.10287463E-09
    7    2    0.66854410E-02 -0.90295965E-09
    8    2    0.36158478E-03 -0.11560242E-09
    1    3   -0.99523826E-02 -0.10053738E-09
    2    3    0.70542450E-02  0.13978524E-09
    3    3   -0.92072345E-02 -0.34091910E-10
    4    3    0.40530402E-02 -0.35815759E-09
    5    3    0.54518017E-02  0.33811526E-10
    6    3    0.66950607E-02  0.62665808E-09
    7    3   -0.87131035E-03  0.27493730E-09
    8    3    0.40560907E-03 -0.15803311E-09
    1    4    0.65909785E-02 -0.14518440E-09
    2    4    0.92726891E-02  0.30171873E-09
    3    4    0.11562598E-01  0.30087629E-09
    4    4   -0.57358153E-02 -0.13996360E-10
    5    4    0.44785021E-02  0.43574816E-09
    6    4   -0.98398476E-02 -0.43342148E-09
    7    4   -0.98103247E-02 -0.36511612E-09
    8    4    0.61981821E-02  0.12877628E-10
    1    5    0.29027455E-02 -0.16588035E-10
    2    5    0.16530391E-01  0.29222944E-09
    3    5   -0.20295436E-01  0.18816725E-10
    4    5    0.39991569E-02  0.37375269E-10
    5    5    0.45142204E-02 -0.24931453E-10
    6    5    0.52401837E-02 -0.19473317E-10
    7    5   -0.15169213E-02 -0.12905503E-09
    8    5    0.14046426E-02 -0.66902072E-10
    1    6    0.16525645E-01 -0.14792133E-09
    2    6    0.29128368E-02  0.11355678E-09
    3    6   -0.20303388E-01  0.26836332E-09
    4    6    0.39876217E-02 -0.12410665E-09
    5    6   -0.12223490E-01  0.14439078E-09
    6    6    0.50904056E-03  0.28586414E-10
    7    6    0.14700611E-01 -0.70077588E-09
    8    6    0.42394844E-02 -0.10710437E-09
    1    7   -0.32113147E-01  0.19784818E-09
    2    7   -0.32114226E-01 -0.50012342E-09
    3    7    0.27088035E-01 -0.25324911E-10
    4    7    0.15541666E-01 -0.21328937E-09
    5    7    0.93248191E-02  0.23332709E-09
    6    7   -0.31246074E-02 -0.99019612E-10
    7    7   -0.17179509E-01 -0.40576684E-10
    8    7   -0.11660531E-01  0.27081182E-09
    1    8    0.24335706E-02 -0.14571972E-09
    2    8    0.24293689E-02 -0.81762881E-10
    3    8    0.21522985E-01  0.49952690E-09
    4    8   -0.32015015E-01 -0.28123679E-09
    5    8   -0.23662038E-02  0.93750012E-10
    6    8    0.11017711E-01  0.58099653E-09
    7    8    0.11867850E-01  0.60317346E-09
    8    8   -0.13746456E-01 -0.10417280E-09

   -3    0    3
    1    1    0.23302793E-01 -0.20919015E-16
    2    1    0.26130493E-01  0.54482653E-09
    3    1   -0.12871653E-01 -0.13025110E-09
    4    1   -0.12861258E-01 -0.16961841E-09
    5    1   -0.13458810E-01 -0.30650681E-09
    6    1    0.36777739E-02  0.63097085E-09
    7    1    0.11356763E-01  0.10303125E-09
    8    1    0.11312036E-01  0.10204233E-11
    1    2    0.26130493E-01 -0.54482653E-09
    2    2    0.23315186E-01 -0.68133537E-18
    3    2   -0.12867198E-01  0.26947576E-09
    4    2   -0.12856804E-01  0.25472380E-09
    5    2    0.46454882E-03 -0.47921420E-09
    6    2   -0.44548600E-02  0.25936410E-09
    7    2    0.71177336E-02  0.18566798E-09
    8    2    0.70837072E-02 -0.40505332E-09
    1    3   -0.12871653E-01  0.13025110E-09
    2    3   -0.12867198E-01 -0.26947578E-09
    3    3    0.14819512E-01  0.25487638E-17
    4    3   -0.39343172E-02  0.52213063E-09
    5    3    0.35910495E-02  0.17532658E-10
    6    3   -0.41408729E-03 -0.45017338E-09
    7    3   -0.52260346E-03 -0.13978551E-09
    8    3   -0.58976877E-02  0.29965135E-09
    1    4   -0.12861258E-01  0.16961840E-09
    2    4   -0.12856804E-01 -0.25472379E-09
    3    4   -0.39343172E-02 -0.52213063E-09
    4    4    0.14831352E-01  0.92281204E-17
    5    4    0.35732449E-02  0.43536509E-10
    6    4   -0.41655442E-03 -0.51174071E-10
    7    4   -0.58774884E-02 -0.51231955E-09
    8    4   -0.47919822E-03 -0.29841702E-10
    1    5   -0.13458810E-01  0.30650680E-09
    2    5    0.46454882E-03  0.47921420E-09
    3    5    0.35910495E-02 -0.17532649E-10
    4    5    0.35732449E-02 -0.43536518E-10
    5    5    0.61056061E-02  0.52122015E-17
    6    5    0.53832919E-02  0.34266988E-09
    7    5   -0.13017693E-01  0.24157689E-09
    8    5   -0.13023432E-01  0.18070202E-09
    1    6    0.36777739E-02 -0.63097084E-09
    2    6   -0.44548600E-02 -0.25936410E-09
    3    6   -0.41408729E-03  0.45017337E-09
    4    6   -0.41655442E-03  0.51174076E-10
    5    6    0.53832919E-02 -0.34266988E-09
    6    6    0.60957214E-02 -0.61526427E-17
    7    6   -0.13023305E-01  0.58712915E-09
    8    6   -0.13029044E-01  0.52497040E-09
    1    7    0.11356763E-01 -0.10303131E-09
    2    7    0.71177336E-02 -0.18566804E-09
    3    7   -0.52260346E-03  0.13978559E-09
    4    7   -0.58774884E-02  0.51231950E-09
    5    7   -0.13017693E-01 -0.24157688E-09
    6    7   -0.13023305E-01 -0.58712916E-09
    7    7    0.34021873E-01  0.77071597E-17
    8    7    0.13598134E-01 -0.59562565E-10
    1    8    0.11312036E-01 -0.10203678E-11
    2    8    0.70837072E-02  0.40505339E-09
    3    8   -0.58976877E-02 -0.29965130E-09
    4    8   -0.47919822E-03  0.29841623E-10
    5    8   -0.13023432E-01 -0.18070203E-09
    6    8   -0.13029044E-01 -0.52497039E-09
    7    8    0.13598134E-01  0.59562572E-10
    8    8    0.34000653E-01  0.41920016E-18

   -3    1   -1
    1    1   -0.68120510E-02  0.23474721E-09
    2    1   -0.13335242E-02 -0.70215856E-09
    3    1    0.21084776E-02  0.25444675E-09
    4    1   -0.12451193E-02 -0.65830715E-09
    5    1    0.97846182E-02 -0.31260142E-09
    6    1    0.19740462E-03 -0.57742143E-10
    7    1   -0.33729507E-02  0.19832909E-09
    8    1    0.44267798E-03  0.50818862E-09
    1    2    0.46061995E-02 -0.28960796E-09
    2    2    0.91845080E-03 -0.73965228E-10
    3    2   -0.13334295E-02  0.16481502E-09
    4    2   -0.47205320E-02 -0.52513659E-10
    5    2   -0.41839063E-02  0.86078002E-11
    6    2    0.17335180E-02  0.35460663E-09
    7    2    0.55437905E-02  0.13950737E-09
    8    2   -0.26317413E-02  0.19838848E-09
    1    3   -0.57651589E-03  0.84061176E-10
    2    3    0.45247023E-02  0.14083664E-09
    3    3   -0.67985640E-02 -0.20110843E-09
    4    3    0.44582400E-02  0.18349700E-09
    5    3   -0.84048577E-02 -0.58490683E-10
    6    3    0.26960445E-02 -0.17780630E-09
    7    3    0.53835607E-02  0.72513547E-10
    8    3   -0.71222709E-03  0.15712933E-09
    1    4    0.44805994E-02 -0.30683071E-09
    2    4   -0.48609473E-02 -0.80695703E-10
    3    4   -0.11447286E-02  0.86058919E-10
    4    4    0.83210694E-03 -0.65833793E-10
    5    4   -0.24316301E-02 -0.22553602E-09
    6    4   -0.27074097E-02 -0.16865265E-09
    7    4    0.44814573E-03  0.62977561E-10
    8    4    0.58489605E-02 -0.32568493E-10
    1    5    0.55080915E-02 -0.51647126E-10
    2    5    0.55056265E-02  0.14529933E-09
    3    5   -0.34912392E-02 -0.21506781E-09
    4    5    0.59383392E-03 -0.13359733E-10
    5    5   -0.58088051E-02 -0.28033758E-10
    6    5    0.16190261E-02 -0.23491453E-09
    7    5   -0.26073057E-02 -0.38066921E-10
    8    5    0.15754958E-02 -0.32051440E-09
    1    6    0.26105702E-02  0.38118593E-09
    2    6    0.18528580E-02 -0.25971996E-09
    3    6    0.16351703E-03 -0.26825182E-10
    4    6   -0.26771915E-02  0.26873229E-09
    5    6    0.19721569E-03  0.31467176E-09
    6    6    0.14779490E-02  0.43070758E-10
    7    6    0.16848016E-02 -0.17964240E-09
    8    6   -0.63173979E-02  0.33225667E-09
    1    7   -0.84922739E-02  0.79162846E-10
    2    7   -0.41585676E-02  0.10966602E-09
    3    7    0.99406027E-02 -0.40272115E-09
    4    7   -0.23551132E-02  0.42212448E-09
    5    7    0.78648578E-02  0.61647711E-09
    6    7    0.24866780E-04 -0.44670409E-09
    7    7   -0.58025089E-02  0.59846917E-10
    8    7    0.30278413E-03 -0.36016213E-09
    1    8   -0.65078697E-03 -0.20086824E-09
    2    8   -0.26449382E-02 -0.17999916E-09
    3    8    0.40390931E-03 -0.26164533E-09
    4    8    0.57769992E-02 -0.17124212E-10
    5    8    0.24959141E-03  0.34790583E-09
    6    8   -0.62937096E-02 -0.30987641E-09
    7    8    0.15904130E-02 -0.12786432E-09
    8    8    0.14337909E-02  0.41903994E-10

   -3    1    0
    1    1   -0.96734272E-02  0.22332053E-10
    2    1    0.94746805E-03  0.95010236E-10
    3    1   -0.53044447E-02  0.88671868E-10
    4    1    0.44426592E-03  0.61029035E-09
    5    1   -0.44731624E-02  0.31453454E-09
    6    1    0.71914259E-02 -0.35017535E-09
    7    1    0.50003209E-03 -0.34416646E-10
    8    1    0.70814050E-02 -0.62941917E-09
    1    2    0.71350988E-02 -0.31911702E-09
    2    2   -0.91771501E-02 -0.37152267E-10
    3    2   -0.10051691E-01  0.13518693E-09
    4    2    0.40763719E-02 -0.23996301E-09
    5    2   -0.42781003E-03  0.41027102E-09
    6    2   -0.45451533E-03 -0.45298012E-10
    7    2    0.35007963E-02  0.23274076E-09
    8    2   -0.59290378E-02  0.38149739E-09
    1    3   -0.15671357E-01 -0.37249689E-10
    2    3    0.19110530E-01  0.26578043E-09
    3    3    0.41707627E-03  0.61108479E-11
    4    3   -0.34222668E-02 -0.42867706E-10
    5    3    0.36748584E-02 -0.14808757E-09
    6    3    0.11294257E-01  0.23357447E-09
    7    3   -0.13418537E-01  0.46018590E-09
    8    3    0.11334081E-01 -0.14274671E-09
    1    4    0.92871807E-02  0.31201768E-09
    2    4    0.11497057E-01  0.45586672E-09
    3    4    0.65743378E-02 -0.49349800E-10
    4    4   -0.57931285E-02  0.54856134E-10
    5    4   -0.42728469E-03  0.61901879E-09
    6    4   -0.58315783E-02 -0.97582957E-10
    7    4    0.36296491E-02  0.29734790E-09
    8    4   -0.49699901E-03 -0.44368684E-10
    1    5   -0.13097324E-01 -0.22031968E-09
    2    5    0.37575824E-01  0.76404582E-09
    3    5    0.30834428E-02 -0.33279084E-10
    4    5   -0.96870681E-02  0.59696869E-10
    5    5    0.51216852E-03  0.60107301E-11
    6    5    0.14709030E-01  0.66022759E-09
    7    5   -0.12363106E-01 -0.16762816E-09
    8    5    0.42603730E-02  0.36355260E-10
    1    6    0.37519509E-01 -0.10276538E-08
    2    6   -0.13084747E-01  0.18027007E-09
    3    6    0.30602586E-02  0.11466561E-09
    4    6   -0.97366068E-02  0.18359619E-09
    5    6   -0.31406934E-02  0.48103944E-10
    6    6   -0.17180419E-01  0.22809289E-11
    7    6    0.93439750E-02 -0.44294241E-09
    8    6   -0.11679040E-01  0.37799825E-09
    1    7   -0.13956268E-01 -0.33611717E-09
    2    7   -0.13920170E-01 -0.40790001E-09
    3    7   -0.44366999E-02  0.25832815E-10
    4    7    0.14818779E-01  0.18646583E-10
    5    7    0.53239455E-02 -0.15850234E-09
    6    7   -0.16650110E-02  0.32589013E-09
    7    7    0.45033294E-02 -0.90258984E-10
    8    7    0.14116546E-02 -0.10792112E-09
    1    8   -0.53262162E-01 -0.11246267E-08
    2    8   -0.53248950E-01 -0.19516242E-08
    3    8   -0.68435431E-02 -0.23604397E-09
    4    8    0.46053320E-01  0.44121828E-09
    5    8    0.11008615E-01  0.14425845E-09
    6    8    0.11875402E-01  0.44574072E-09
    7    8   -0.23708990E-02 -0.28176759E-10
    8    8   -0.13737084E-01  0.37412191E-10

   -3    1    1
    1    1    0.21612558E-01  0.19686228E-10
    2    1   -0.63018929E-02 -0.11960824E-10
    3    1   -0.64454263E-02 -0.54628796E-10
    4    1   -0.42662264E-02  0.15653725E-09
    5    1   -0.41739227E-02  0.67452041E-10
    6    1   -0.91852595E-02 -0.17797440E-09
    7    1    0.11602501E-01  0.65256444E-10
    8    1   -0.12416547E-02 -0.30931318E-09
    1    2   -0.63854691E-02  0.67711293E-10
    2    2    0.21610870E-01  0.51457966E-10
    3    2   -0.63078873E-02  0.70237118E-10
    4    2   -0.41168548E-02  0.10186649E-09
    5    2   -0.39385419E-02 -0.31582809E-11
    6    2    0.12484461E-01  0.63289816E-10
    7    2   -0.41032428E-02 -0.20434209E-09
    8    2    0.27168924E-02 -0.66340856E-10
    1    3   -0.62479301E-02 -0.65786058E-10
    2    3   -0.63914635E-02 -0.12325787E-09
    3    3    0.21609183E-01  0.12339779E-10
    4    3   -0.39674831E-02  0.64409300E-10
    5    3    0.11472284E-01 -0.39515710E-10
    6    3   -0.94750361E-02 -0.21583607E-09
    7    3   -0.40321208E-02 -0.25179632E-09
    8    3   -0.12138818E-02 -0.16755522E-09
    1    4    0.11625334E-01  0.32473338E-09
    2    4    0.11477779E-01  0.39272251E-09
    3    4    0.11330224E-01  0.30167509E-09
    4    4   -0.15314169E-01 -0.35519736E-10
    5    4   -0.55998747E-02 -0.10040171E-09
    6    4   -0.50283415E-02 -0.21405351E-09
    7    4   -0.54389217E-02 -0.21859936E-09
    8    4    0.54864495E-02 -0.68250933E-10
    1    5   -0.13077718E-01 -0.16842472E-09
    2    5    0.30733850E-02 -0.70175310E-10
    3    5    0.37577463E-01  0.61350495E-10
    4    5   -0.96686261E-02  0.47556685E-10
    5    5    0.18072227E-01  0.17578911E-10
    6    5   -0.10518498E-01 -0.25592186E-09
    7    5   -0.10483059E-01 -0.11134686E-09
    8    5    0.11973118E-02  0.96493143E-11
    1    6   -0.14015570E-01  0.30181574E-09
    2    6   -0.45646029E-02 -0.10518473E-10
    3    6   -0.13725869E-01  0.49554811E-09
    4    6    0.14744567E-01 -0.54560181E-09
    5    6   -0.10234773E-01  0.32857432E-09
    6    6    0.18072879E-01 -0.16507636E-10
    7    6   -0.10526447E-01  0.11609275E-09
    8    6    0.11540516E-02  0.82667749E-10
    1    7    0.37422536E-01 -0.35888237E-09
    2    7    0.32101917E-02 -0.15183698E-09
    3    7   -0.13210038E-01 -0.10956387E-09
    4    7   -0.98330719E-02 -0.32283518E-10
    5    7   -0.10278159E-01  0.15945996E-09
    6    7   -0.10242722E-01 -0.16325012E-09
    7    7    0.18073530E-01  0.67195135E-10
    8    7    0.11107913E-02  0.85648284E-10
    1    8   -0.53239016E-01 -0.91778670E-09
    2    8   -0.68719722E-02 -0.27023924E-09
    3    8   -0.53241786E-01 -0.11289819E-08
    4    8    0.46088321E-01  0.39485526E-09
    5    8    0.14528684E-01  0.33856935E-09
    6    8    0.14582018E-01  0.58054094E-09
    7    8    0.14635352E-01  0.61817758E-09
    8    8   -0.16035497E-02 -0.50024013E-10

   -3    1    2
    1    1   -0.96284620E-02 -0.14879864E-10
    2    1   -0.53339056E-02  0.24364333E-09
    3    1    0.97344846E-03 -0.25258651E-10
    4    1    0.48131352E-03  0.49948780E-09
    5    1   -0.41528331E-02  0.17797168E-09
    6    1    0.11511319E-01  0.42878609E-11
    7    1   -0.92590206E-02 -0.34849098E-10
    8    1   -0.12170545E-02 -0.17515833E-09
    1    2   -0.15650071E-01  0.26159876E-09
    2    2    0.38553536E-03  0.74731596E-10
    3    2    0.19118958E-01 -0.38230071E-09
    4    2   -0.33877452E-02  0.80592627E-10
    5    2    0.11484680E-01 -0.13602568E-09
    6    2   -0.41465851E-02  0.12454194E-10
    7    2   -0.92868691E-02  0.18638917E-09
    8    2   -0.12241519E-02 -0.13391892E-11
    1    3    0.71088595E-02 -0.11931809E-09
    2    3   -0.99949254E-02 -0.10593466E-09
    3    3   -0.92183265E-02 -0.56141636E-10
    4    3    0.40376458E-02 -0.27630842E-09
    5    3   -0.39543805E-02 -0.50570624E-11
    6    3   -0.39505596E-02  0.21407627E-10
    7    3    0.12354671E-01  0.19066411E-09
    8    3    0.27119336E-02 -0.80897972E-10
    1    4    0.93344903E-02  0.31028563E-09
    2    4    0.65468561E-02  0.13118705E-09
    3    4    0.11538364E-01  0.27661667E-09
    4    4   -0.57638864E-02  0.29208087E-10
    5    4   -0.55785515E-02 -0.10233144E-09
    6    4   -0.55541450E-02 -0.20851674E-09
    7    4   -0.51001492E-02 -0.19535397E-09
    8    4    0.55246464E-02 -0.82581930E-11
    1    5    0.55202531E-02  0.50715028E-10
    2    5   -0.34851187E-02  0.19423944E-09
    3    5    0.54988095E-02 -0.11703062E-09
    4    5    0.60358210E-03  0.16927414E-11
    5    5    0.51173140E-03 -0.14674203E-10
    6    5   -0.12362092E-01 -0.98558371E-10
    7    5    0.14702019E-01 -0.17502662E-09
    8    5    0.42567981E-02 -0.26608385E-09
    1    6   -0.85499012E-02 -0.74833413E-10
    2    6    0.98686448E-02  0.17515799E-09
    3    6   -0.41017106E-02  0.17352819E-10
    4    6   -0.23873198E-02  0.12446444E-09
    5    6    0.53101606E-02  0.85468860E-10
    6    6    0.45085840E-02 -0.41342036E-10
    7    6   -0.15399595E-02 -0.78506484E-10
    8    6    0.13914758E-02  0.19285762E-10
    1    7    0.25847713E-02 -0.47227680E-10
    2    7    0.25408997E-03 -0.16392162E-09
    3    7    0.17968034E-02  0.84909569E-10
    4    7   -0.27027888E-02 -0.22993120E-09
    5    7   -0.31333057E-02  0.12588921E-09
    6    7    0.93454210E-02  0.42014738E-09
    7    7   -0.17176180E-01  0.18431493E-09
    8    7   -0.11660112E-01  0.43783230E-09
    1    8   -0.65272612E-03 -0.18047729E-09
    2    8    0.42580702E-03 -0.86049853E-10
    3    8   -0.26686363E-02 -0.15605522E-09
    4    8    0.57773326E-02  0.13280119E-10
    5    8    0.11013473E-01  0.67148941E-10
    6    8   -0.23430288E-02 -0.91830314E-10
    7    8    0.11869604E-01  0.56582923E-09
    8    8   -0.13747630E-01 -0.13354295E-09

   -3    1    3
    1    1   -0.68117400E-02 -0.58689109E-10
    2    1    0.20476442E-02  0.75081963E-09
    3    1   -0.12704175E-02 -0.11873518E-09
    4    1   -0.12566484E-02 -0.18529145E-09
    5    1   -0.44778456E-02  0.25290948E-09
    6    1    0.49541605E-03  0.83307537E-09
    7    1    0.71350991E-02  0.74853387E-10
    8    1    0.71010727E-02 -0.55917631E-09
    1    2   -0.52455106E-03  0.16234444E-09
    2    2   -0.68179167E-02 -0.88480522E-10
    3    2    0.45140120E-02 -0.55442784E-09
    4    2    0.45152633E-02 -0.14414806E-09
    5    2    0.36761500E-02 -0.31263552E-09
    6    2   -0.13456171E-01 -0.25728248E-09
    7    2    0.11343215E-01 -0.42481723E-09
    8    2    0.11298489E-01 -0.46204899E-09
    1    3    0.45291665E-02 -0.24404479E-09
    2    3   -0.12534589E-02 -0.15173349E-09
    3    3    0.89029590E-03  0.15494256E-09
    4    3   -0.48022278E-02  0.87529237E-11
    5    3   -0.42619622E-03  0.17050250E-12
    6    3    0.35847565E-02  0.33347603E-09
    7    3   -0.52068999E-03 -0.35292706E-10
    8    3   -0.58941175E-02  0.34930580E-09
    1    4    0.45304177E-02 -0.72015992E-09
    2    4   -0.12396898E-02 -0.39094114E-10
    3    4   -0.48022277E-02  0.25054035E-09
    4    4    0.88039504E-03  0.17490608E-09
    5    4   -0.42866335E-03  0.48071766E-09
    6    4    0.35669519E-02  0.38521586E-09
    7    4   -0.58739182E-02 -0.50086701E-09
    8    4   -0.47728473E-03 -0.25434381E-10
    1    5    0.59888683E-02 -0.51400100E-09
    2    5   -0.54192845E-02 -0.17171656E-08
    3    5    0.99633961E-03  0.38535122E-09
    4    5    0.10016892E-02 -0.22983440E-09
    5    5   -0.58099249E-02  0.28850797E-10
    6    5   -0.26019219E-02 -0.23951267E-10
    7    5    0.15888199E-02  0.22639860E-09
    8    5    0.15890396E-02  0.19837116E-09
    1    6   -0.55792955E-02  0.22260871E-08
    2    6    0.17828930E-02 -0.70940641E-09
    3    6    0.33855581E-02 -0.13874723E-08
    4    6    0.33759605E-02 -0.15262449E-09
    5    6    0.78600116E-02 -0.12403777E-08
    6    6   -0.58107427E-02 -0.40335777E-09
    7    6    0.21681675E-03  0.20581761E-09
    8    6    0.22927069E-03 -0.31542994E-09
    1    7    0.13431898E-02  0.11603051E-09
    2    7    0.32922632E-02 -0.73421599E-09
    3    7   -0.17797581E-02 -0.12160103E-08
    4    7   -0.16449980E-04 -0.52932395E-09
    5    7    0.23011334E-03 -0.36320611E-09
    6    7    0.16086104E-02  0.41839687E-09
    7    7    0.14669731E-02  0.46585766E-10
    8    7   -0.63259638E-02 -0.23698263E-09
    1    8    0.13592351E-02 -0.14856023E-08
    2    8    0.32919774E-02  0.40193390E-09
    3    8   -0.56305548E-05  0.26465792E-09
    4    8   -0.17871200E-02 -0.17920533E-09
    5    8    0.24256747E-03  0.18064451E-09
    6    8    0.16088301E-02  0.43875638E-09
    7    8   -0.63259639E-02  0.39986059E-09
    8    8    0.14530290E-02  0.58261545E-10

   -3    2   -2
    1    1    0.28420482E-02  0.12517112E-12
    2    1    0.25796547E-03  0.32321394E-08
    3    1    0.16259109E-02 -0.83020499E-08
    4    1    0.24253129E-03  0.55839234E-08
    5    1   -0.90082183E-03  0.50990751E-09
    6    1   -0.17582213E-02 -0.11731910E-08
    7    1   -0.17503990E-02 -0.20067747E-09
    8    1   -0.26606337E-02 -0.29079748E-09
    1    2   -0.22855387E-02  0.28125864E-08
    2    2    0.10267549E-02 -0.10602489E-08
    3    2    0.23694928E-03 -0.94066467E-09
    4    2   -0.18119352E-02 -0.87179591E-09
    5    2    0.52641810E-02 -0.80883866E-10
    6    2   -0.66159693E-03  0.34422923E-10
    7    2   -0.27672325E-02 -0.19519520E-09
    8    2    0.45353034E-02  0.12267283E-09
    1    3   -0.11704619E-02 -0.12107011E-08
    2    3   -0.23032861E-02 -0.10807160E-08
    3    3    0.28406609E-02  0.34616838E-09
    4    3   -0.22723035E-02 -0.18022632E-08
    5    3    0.52630445E-02 -0.16854050E-09
    6    3   -0.27725103E-02  0.27190886E-09
    7    3   -0.66042648E-03  0.32940381E-10
    8    3    0.45252903E-02  0.14107741E-09
    1    4   -0.22980405E-02  0.34875804E-08
    2    4   -0.17931012E-02 -0.15774262E-08
    3    4    0.22873234E-03 -0.32793347E-08
    4    4    0.10311578E-02 -0.10653635E-08
    5    4    0.11605749E-02  0.95504663E-09
    6    4    0.11142107E-02 -0.61369089E-09
    7    4    0.11153765E-02  0.15874115E-08
    8    4   -0.36613505E-02 -0.30296989E-09
    1    5   -0.69481438E-03 -0.10446215E-09
    2    5   -0.27924078E-02  0.60166344E-10
    3    5   -0.17090573E-02  0.45957194E-09
    4    5    0.10978799E-02 -0.12278061E-08
    5    5    0.93631001E-03  0.15481383E-08
    6    5   -0.42087695E-04 -0.81364248E-09
    7    5    0.62539180E-03 -0.20578451E-08
    8    5   -0.57077012E-04 -0.97427065E-09
    1    6   -0.27871300E-02 -0.58588243E-09
    2    6   -0.69364390E-03 -0.57388726E-09
    3    6   -0.17012351E-02  0.97959467E-09
    4    6    0.10990458E-02 -0.76066918E-10
    5    6   -0.18821833E-02 -0.35316794E-08
    6    6    0.32242764E-02  0.20971121E-09
    7    6   -0.76608221E-04  0.32865030E-08
    8    6    0.32968484E-03  0.91140265E-09
    1    7    0.53026069E-02  0.16339387E-09
    2    7    0.53014704E-02 -0.26610530E-09
    3    7   -0.98444275E-03  0.95400858E-09
    4    7    0.11325746E-02 -0.21742955E-08
    5    7   -0.40965755E-02 -0.53670456E-08
    6    7   -0.18788126E-02  0.74107556E-08
    7    7    0.94923379E-03 -0.35075953E-09
    8    7   -0.18815420E-02  0.64671928E-08
    1    8    0.45398567E-02 -0.82083782E-10
    2    8    0.45298436E-02 -0.44442665E-10
    3    8   -0.26633213E-02  0.68330924E-10
    4    8   -0.36458150E-02  0.12241966E-09
    5    8   -0.18971224E-02 -0.25439126E-08
    6    8    0.30939836E-03 -0.13459780E-09
    7    8   -0.45782238E-04  0.34561039E-08
    8    8    0.32248727E-02  0.22898016E-09

   -3    2   -1
    1    1   -0.52102696E-02 -0.19613428E-09
    2    1   -0.18379879E-02 -0.12323412E-09
    3    1    0.37257319E-02 -0.27486883E-09
    4    1   -0.22134715E-02  0.12549878E-08
    5    1    0.17933705E-02  0.10682114E-08
    6    1    0.32560705E-02 -0.16579554E-08
    7    1   -0.54519639E-02 -0.37118876E-09
    8    1    0.32921509E-02 -0.16566959E-08
    1    2   -0.17825678E-02  0.94746381E-10
    2    2   -0.51901415E-02 -0.86560072E-10
    3    2    0.36898823E-02 -0.22377357E-09
    4    2   -0.22883861E-02  0.36543030E-09
    5    2    0.33600835E-02 -0.15606911E-10
    6    2   -0.18048708E-02 -0.57364177E-09
    7    2    0.10262671E-02  0.16871487E-08
    8    2   -0.19297854E-04  0.20952416E-09
    1    3    0.33397576E-02  0.75802063E-10
    2    3    0.33787457E-02 -0.86341958E-11
    3    3   -0.82713307E-02  0.21877119E-09
    4    3    0.40303259E-03 -0.73588753E-09
    5    3   -0.55328529E-02  0.48060361E-09
    6    3    0.14413146E-02  0.11302255E-08
    7    3    0.59299776E-02 -0.11067096E-09
    8    3    0.13756277E-02  0.86205304E-09
    1    4   -0.27182230E-02 -0.11359450E-09
    2    4   -0.26556318E-02 -0.73855058E-10
    3    4    0.38564155E-03  0.23052736E-09
    4    4    0.20109716E-02 -0.14310267E-09
    5    4    0.33905572E-02 -0.44519444E-09
    6    4   -0.26265116E-04  0.26066632E-09
    7    4    0.94360567E-03  0.18341330E-08
    8    4   -0.17659462E-02  0.26211426E-09
    1    5    0.17696374E-02 -0.13261230E-09
    2    5    0.27260848E-02 -0.34073737E-10
    3    5    0.10506209E-03  0.63962375E-10
    4    5   -0.27016605E-02 -0.78295771E-10
    5    5   -0.38832233E-02  0.71368196E-10
    6    5    0.22402324E-03  0.25252019E-09
    7    5    0.35817584E-02 -0.16196275E-09
    8    5   -0.15551707E-02  0.13250066E-09
    1    6    0.56206670E-02  0.12641634E-09
    2    6    0.54687349E-02 -0.25954185E-10
    3    6   -0.35154083E-02 -0.11313322E-09
    4    6    0.50558729E-03  0.27308900E-10
    5    6    0.11600274E-03  0.43220658E-09
    6    6   -0.38801185E-02  0.81060450E-10
    7    6    0.35899351E-02 -0.57304873E-09
    8    6   -0.15241597E-02 -0.23459043E-09
    1    7   -0.41769989E-02  0.14256755E-10
    2    7   -0.84827904E-02  0.98344556E-10
    3    7    0.99580890E-02 -0.29156082E-09
    4    7   -0.23320857E-02  0.34002797E-09
    5    7    0.35778197E-02 -0.22032732E-09
    6    7    0.35622910E-02 -0.27949238E-09
    7    7   -0.11222163E-01  0.62999557E-10
    8    7   -0.22157065E-02 -0.46763708E-10
    1    8   -0.26284835E-02 -0.24100627E-09
    2    8   -0.71015234E-03 -0.11205452E-09
    3    8    0.42426959E-03 -0.22366402E-09
    4    8    0.58281970E-02 -0.15682673E-10
    5    8   -0.18071042E-02 -0.50515402E-10
    6    8   -0.18678974E-02  0.38254585E-10
    7    8   -0.14536886E-02  0.13413119E-08
    8    8    0.10768959E-02 -0.50694792E-10

   -3    2    0
    1    1   -0.91495339E-02  0.38089566E-11
    2    1    0.71244670E-02  0.18216759E-09
    3    1   -0.10096025E-01  0.13625134E-09
    4    1    0.40562013E-02 -0.51498515E-09
    5    1   -0.73711238E-03 -0.43972452E-10
    6    1    0.67293326E-02  0.10925815E-08
    7    1    0.53690607E-02  0.13898270E-09
    8    1    0.35600345E-03 -0.32958101E-09
    1    2    0.88570804E-03 -0.43741444E-10
    2    2   -0.96376650E-02  0.74082393E-10
    3    2   -0.52123123E-02 -0.10468155E-09
    4    2    0.51737414E-03  0.52365228E-10
    5    2    0.67389522E-02 -0.58764111E-09
    6    2   -0.78658918E-03 -0.54244626E-10
    7    2    0.53856729E-02  0.10833579E-08
    8    2    0.40002769E-03 -0.11576337E-09
    1    3    0.19163365E-01 -0.71621575E-10
    2    3   -0.15752245E-01 -0.27518903E-09
    3    3    0.38770734E-03  0.81987715E-10
    4    3   -0.34510565E-02 -0.24001758E-10
    5    3   -0.84331811E-02  0.10353721E-09
    6    3   -0.84226760E-02 -0.31862634E-09
    7    3    0.84313033E-03 -0.77507577E-09
    8    3   -0.71302632E-03  0.10207679E-09
    1    4    0.11549574E-01  0.35081660E-09
    2    4    0.92074234E-02  0.34247078E-09
    3    4    0.65367809E-02 -0.90153467E-10
    4    4   -0.58289859E-02  0.31237363E-10
    5    4   -0.97859340E-02 -0.23090981E-09
    6    4   -0.97564112E-02 -0.30642233E-09
    7    4    0.45820551E-02  0.53924321E-09
    8    4    0.61616180E-02  0.47388107E-10
    1    5    0.27197639E-01  0.18608092E-09
    2    5   -0.32146123E-01 -0.76652760E-09
    3    5   -0.32147202E-01 -0.16669815E-09
    4    5    0.15633419E-01 -0.10493116E-09
    5    5   -0.17185339E-01  0.12173103E-10
    6    5   -0.33253821E-02 -0.77738805E-10
    7    5    0.93798810E-02  0.23391276E-10
    8    5   -0.11633193E-01  0.17341383E-09
    1    6   -0.20354545E-01  0.29160754E-09
    2    6    0.30030209E-02  0.37494596E-10
    3    6    0.16566008E-01 -0.25060228E-09
    4    6    0.40095996E-02 -0.14110594E-09
    5    6    0.14765672E-01 -0.66465446E-09
    6    6    0.52220971E-03 -0.78209189E-10
    7    6   -0.12358781E-01 -0.10547171E-09
    8    6    0.42763524E-02 -0.11157643E-09
    1    7   -0.20362498E-01  0.30252891E-09
    2    7    0.16561263E-01  0.18007959E-09
    3    7    0.30131122E-02 -0.81472991E-10
    4    7    0.39980643E-02  0.11567805E-09
    5    7   -0.17017783E-02  0.36815521E-10
    6    7    0.53337997E-02 -0.24970670E-09
    7    7    0.45033354E-02  0.75493712E-10
    8    7    0.14103321E-02 -0.10426500E-09
    1    8    0.21563491E-01  0.37975302E-09
    2    8    0.24076434E-02 -0.32330192E-10
    3    8    0.24034416E-02 -0.86533838E-10
    4    8   -0.31983355E-01 -0.33275531E-09
    5    8    0.11858833E-01  0.31485648E-09
    6    8    0.10994087E-01  0.57760915E-09
    7    8   -0.23759911E-02  0.18592123E-09
    8    8   -0.13740363E-01 -0.20907105E-09

   -3    2    1
    1    1   -0.91384420E-02 -0.34645109E-10
    2    1   -0.10053482E-01 -0.35309231E-10
    3    1    0.70698525E-02  0.14149616E-09
    4    1    0.40715957E-02 -0.49444363E-09
    5    1    0.12614250E-01 -0.98940781E-10
    6    1   -0.40912248E-02  0.13998581E-09
    7    1   -0.40874040E-02 -0.47368639E-10
    8    1    0.27218512E-02 -0.11335646E-09
    1    2    0.19113544E-01 -0.37258579E-09
    2    2    0.36706463E-03 -0.66330692E-11
    3    2   -0.15707524E-01  0.25303100E-09
    4    2   -0.35023843E-02  0.11666934E-09
    5    2   -0.93734265E-02  0.27970058E-09
    6    2   -0.40594586E-02  0.57285185E-10
    7    2    0.11590105E-01  0.11418675E-09
    8    2   -0.12313846E-02  0.21268548E-10
    1    3    0.94592101E-03 -0.76714977E-10
    2    3   -0.52207123E-02  0.11923584E-09
    3    3   -0.96569757E-02 -0.97047370E-11
    4    3    0.57461913E-03  0.26871356E-09
    5    3   -0.94012753E-02  0.64493643E-10
    6    3    0.11563466E-01  0.62427492E-10
    7    3   -0.40532106E-02 -0.11491453E-09
    8    3   -0.12384820E-02 -0.33541753E-10
    1    4    0.11573809E-01  0.24401549E-09
    2    4    0.65809033E-02  0.11156571E-09
    3    4    0.91456222E-02  0.26896748E-09
    4    4   -0.58009147E-02  0.43858563E-10
    5    4   -0.49565337E-02 -0.10059419E-09
    6    4   -0.54846514E-02 -0.26173331E-09
    7    4   -0.54602448E-02 -0.27611131E-09
    8    4    0.54482525E-02  0.54990528E-10
    1    5    0.17895727E-02 -0.20216387E-09
    2    5    0.10683145E-03  0.74390501E-10
    3    5    0.27218435E-02  0.56670516E-10
    4    5   -0.26818124E-02 -0.11286775E-09
    5    5   -0.17188668E-01  0.12510283E-09
    6    5    0.93592788E-02  0.39625091E-09
    7    5   -0.33166839E-02  0.25492431E-09
    8    5   -0.11633612E-01  0.23073168E-09
    1    6   -0.42407632E-02  0.36872711E-10
    2    6    0.98565762E-02  0.13785143E-09
    3    6   -0.83472303E-02  0.60561471E-10
    4    6   -0.23994235E-02  0.36068881E-10
    5    6   -0.16787400E-02 -0.11155087E-09
    6    6    0.45089718E-02  0.94155858E-10
    7    6    0.52638228E-02  0.29224991E-09
    8    6    0.14234989E-02  0.43872375E-10
    1    7    0.55506075E-02 -0.15434503E-09
    2    7   -0.33790712E-02  0.33916441E-09
    3    7    0.53713992E-02 -0.77646531E-11
    4    7    0.43839763E-03 -0.12847817E-09
    5    7    0.14764264E-01 -0.12178304E-11
    6    7   -0.12220180E-01  0.19869495E-09
    7    7    0.51951891E-03 -0.70872114E-10
    8    7    0.42590387E-02 -0.28926160E-09
    1    8   -0.26080433E-02 -0.22672761E-09
    2    8    0.42078023E-03 -0.14338992E-09
    3    8   -0.71028795E-03 -0.48782894E-10
    4    8    0.58486271E-02  0.34554292E-10
    5    8    0.11857079E-01  0.34139951E-09
    6    8   -0.23991660E-02 -0.33138248E-10
    7    8    0.10998325E-01 -0.45623386E-10
    8    8   -0.13739188E-01 -0.15913605E-09

   -3    2    2
    1    1   -0.51968669E-02  0.53815851E-10
    2    1    0.36588168E-02  0.49749330E-09
    3    1   -0.17872189E-02  0.32210672E-10
    4    1   -0.22003429E-02  0.15594370E-08
    5    1   -0.73480360E-03 -0.11062359E-09
    6    1    0.53242294E-02 -0.13019804E-08
    7    1    0.66865813E-02  0.50311829E-11
    8    1    0.37123295E-03 -0.27396854E-09
    1    2    0.34077976E-02 -0.85076028E-10
    2    2   -0.82857374E-02 -0.14060351E-09
    3    2    0.33636930E-02 -0.74917346E-10
    4    2    0.47148336E-03 -0.43421231E-09
    5    2   -0.84360171E-02  0.40086819E-09
    6    2    0.74834585E-03  0.30464938E-09
    7    2   -0.83108384E-02  0.36071478E-09
    8    2   -0.71320890E-03  0.19183671E-09
    1    3   -0.18410140E-02 -0.44297587E-10
    2    3    0.37377479E-02  0.30479819E-09
    3    3   -0.52061564E-02  0.15609028E-09
    4    3   -0.23471620E-02  0.67751757E-09
    5    3    0.67378120E-02 -0.12218851E-09
    6    3    0.54966330E-02 -0.56955360E-09
    7    3   -0.87361908E-03  0.24573985E-09
    8    3    0.39037946E-03 -0.77726625E-10
    1    4   -0.26976384E-02  0.57905399E-11
    2    4    0.31159036E-03 -0.35018138E-10
    3    4   -0.25968552E-02  0.43969719E-10
    4    4    0.20261856E-02 -0.94952511E-10
    5    4   -0.97788424E-02 -0.23355624E-09
    6    4    0.45302785E-02  0.22823261E-09
    7    4   -0.98174163E-02 -0.27149787E-09
    8    4    0.61799001E-02  0.21791724E-09
    1    5   -0.69776689E-03 -0.30678162E-09
    2    5   -0.17114266E-02  0.21225443E-09
    3    5   -0.27900445E-02 -0.59630991E-09
    4    5    0.10953646E-02 -0.15380716E-08
    5    5   -0.38834808E-02 -0.35109773E-10
    6    5    0.35888193E-02  0.63217986E-09
    7    5    0.19789436E-03  0.28133402E-09
    8    5   -0.15534798E-02  0.14068426E-09
    1    6    0.53112330E-02  0.59304722E-09
    2    6   -0.94263234E-03 -0.14386271E-09
    3    6    0.52544184E-02  0.25012207E-09
    4    6    0.11465747E-02 -0.20549027E-09
    5    6    0.35720919E-02 -0.25445561E-10
    6    6   -0.11222146E-01  0.15097836E-10
    7    6    0.37122721E-02  0.11522344E-09
    8    6   -0.22335528E-02 -0.58547719E-10
    1    7   -0.27695959E-02 -0.76461000E-09
    2    7   -0.17480298E-02 -0.29903860E-09
    3    7   -0.65747402E-03 -0.76891874E-09
    4    7    0.11178919E-02 -0.26383574E-08
    5    7    0.13528367E-03 -0.13216127E-09
    6    7    0.34935204E-02  0.13421004E-08
    7    7   -0.38773926E-02 -0.20846099E-10
    8    7   -0.15008719E-02  0.45735073E-09
    1    8    0.45345270E-02 -0.12499481E-10
    2    8   -0.26619775E-02  0.33203460E-09
    3    8    0.45306199E-02  0.10328619E-09
    4    8   -0.36535828E-02  0.26907074E-09
    5    8   -0.18055021E-02 -0.32467770E-10
    6    8   -0.14433379E-02  0.19506127E-09
    7    8   -0.18898749E-02 -0.20232981E-09
    8    8    0.10762155E-02  0.54280438E-10

   -3    2    3
    1    1    0.28400837E-02  0.44408128E-09
    2    1    0.16356981E-02 -0.13744259E-07
    3    1    0.24722679E-03  0.46371289E-08
    4    1    0.24212372E-03  0.85738549E-08
    5    1    0.17861501E-02  0.87139543E-09
    6    1   -0.54182007E-02 -0.59349473E-08
    7    1    0.32761110E-02  0.34446517E-09
    8    1    0.32758252E-02 -0.81837694E-09
    1    2   -0.11869658E-02 -0.21521115E-08
    2    2    0.28371153E-02  0.61335241E-09
    3    2   -0.22867723E-02 -0.20127516E-09
    4    2   -0.22891976E-02 -0.17902120E-08
    5    2   -0.55404179E-02  0.11691328E-08
    6    2    0.59781408E-02  0.92904562E-09
    7    2    0.13564790E-02 -0.14442121E-08
    8    2    0.13725245E-02  0.98141248E-10
    1    3   -0.22855880E-02  0.68483331E-09
    2    3    0.24366626E-03  0.23961748E-08
    3    3    0.10234859E-02  0.23793442E-09
    4    3   -0.18101761E-02 -0.43658699E-09
    5    3    0.33798071E-02 -0.43555726E-09
    6    3    0.97422505E-03  0.65474416E-09
    7    3   -0.17718816E-02  0.12134768E-08
    8    3    0.41769054E-05 -0.36430838E-09
    1    4   -0.22880132E-02  0.23621223E-08
    2    4    0.23856330E-03 -0.15248971E-08
    3    4   -0.18101762E-02  0.12246364E-09
    4    4    0.10386870E-02  0.24467445E-09
    5    4    0.33702093E-02 -0.16197979E-08
    6    4    0.97957459E-03  0.12404421E-08
    7    4   -0.66425438E-05  0.42600456E-09
    8    4   -0.17792435E-02  0.10135739E-09
    1    5    0.20908552E-02 -0.19501994E-07
    2    5   -0.15303474E-02 -0.30740869E-07
    3    5   -0.15279904E-02 -0.43250985E-08
    4    5   -0.15256333E-02 -0.52740168E-07
    5    5    0.93822953E-03 -0.51026025E-09
    6    5    0.62088683E-03  0.52070528E-08
    7    5   -0.42704783E-04  0.22344924E-08
    8    5   -0.49339625E-04 -0.26056021E-08
    1    6    0.51876386E-03 -0.48374684E-08
    2    6   -0.21546251E-02  0.72987647E-08
    3    6    0.14023329E-02 -0.87371779E-09
    4    6    0.14037513E-02 -0.11969278E-08
    5    6   -0.41002367E-02  0.66973602E-08
    6    6    0.94332450E-03 -0.85751596E-09
    7    6   -0.18836286E-02 -0.80926720E-08
    8    6   -0.18907205E-02 -0.16532629E-08
    1    7    0.52410439E-03 -0.92378543E-09
    2    7    0.14060458E-02 -0.17960477E-08
    3    7   -0.21632527E-02 -0.17362450E-07
    4    7    0.14102899E-02 -0.12606997E-08
    5    7   -0.18864076E-02  0.27704028E-08
    6    7   -0.43607829E-04 -0.40316610E-08
    7    7    0.32239855E-02 -0.71248143E-10
    8    7    0.30985420E-03 -0.60962957E-08
    1    8    0.52944494E-03 -0.38410191E-08
    2    8    0.14125844E-02 -0.84617541E-09
    3    8    0.14140028E-02  0.15819951E-10
    4    8   -0.21718802E-02 -0.48519088E-08
    5    8   -0.18934994E-02 -0.37473075E-08
    6    8   -0.50242697E-04  0.77961390E-09
    7    8    0.30985415E-03  0.65352131E-08
    8    8    0.32304031E-02 -0.80796241E-10

   -3    3   -3
    1    1    0.48645273E-02 -0.53437752E-16
[...]
    2    2    0.30685932E-03 -0.46090903E-10  0.13570252E-02  0.84983277E-11  0.13570252E-02  0.24680972E-10
    3    2   -0.29376248E-02  0.69717337E-10  0.15810602E-02  0.42298678E-10 -0.29249111E-02  0.10017430E-09
    4    2   -0.29376248E-02  0.11838394E-09 -0.29249111E-02  0.14681713E-09  0.15810603E-02  0.74330753E-10
    5    2   -0.12500652E-02  0.42113075E-10 -0.21989951E-03  0.14920378E-10 -0.21989946E-03  0.37395329E-10
    6    2    0.23392917E-02 -0.51364277E-10  0.17141895E-03 -0.71345677E-10  0.17141888E-03 -0.85902031E-10
    7    2    0.77666797E-03  0.31390450E-11  0.22701202E-02 -0.32349107E-10 -0.26409728E-02  0.41132632E-10
    8    2    0.77666793E-03 -0.47709861E-10 -0.26409728E-02  0.53259467E-10  0.22701202E-02 -0.22283053E-10
    1    3   -0.10754205E-02  0.97745320E-11 -0.22377076E-02 -0.76504479E-10  0.19138256E-02 -0.52700117E-10
    2    3   -0.10754205E-02  0.32943193E-11 -0.19138256E-02 -0.83162395E-11  0.22377076E-02  0.21974091E-10
    3    3    0.19718217E-02 -0.20897924E-10  0.62506513E-03  0.25797999E-10 -0.62506510E-03  0.24833759E-11
    4    3   -0.35036592E-03 -0.49119497E-11  0.59566523E-03  0.21742377E-10 -0.59566518E-03 -0.29439079E-11
    5    3   -0.11986758E-02 -0.48234156E-11  0.13518561E-02  0.77251926E-13 -0.26594867E-02  0.18764723E-10
    6    3   -0.11827302E-02 -0.28352618E-10  0.33341256E-02  0.50394620E-10 -0.39044243E-02 -0.50871904E-10
    7    3   -0.27385867E-02 -0.72695799E-10 -0.36304196E-02  0.66196859E-11  0.41136023E-02  0.63759346E-10
    8    3    0.56020592E-02 -0.10601276E-09  0.25837556E-02 -0.19130604E-10 -0.71480593E-03  0.31932076E-10
    1    4   -0.10754205E-02 -0.45086719E-10  0.19138255E-02 -0.76067111E-11 -0.22377075E-02  0.15998668E-10
    2    4   -0.10754205E-02  0.77773836E-12  0.22377076E-02 -0.53316025E-10 -0.19138256E-02 -0.11474709E-09
    3    4   -0.35036598E-03 -0.54190437E-10 -0.59566523E-03 -0.83627224E-11  0.59566523E-03  0.10281426E-10
    4    4    0.19718217E-02  0.13122818E-10 -0.62506511E-03 -0.52351038E-11  0.62506509E-03 -0.25607564E-10
    5    4   -0.11986758E-02  0.10813068E-10 -0.26594867E-02 -0.10403896E-09  0.13518561E-02  0.50569886E-11
    6    4   -0.11827301E-02 -0.63713235E-12 -0.39044244E-02 -0.81837689E-10  0.33341257E-02  0.14014337E-09
    7    4    0.56020592E-02  0.82094324E-10 -0.71480586E-03 -0.21125010E-10  0.25837556E-02  0.24411028E-10
    8    4   -0.27385867E-02  0.10427160E-09  0.41136023E-02 -0.10633125E-09 -0.36304195E-02 -0.34781011E-10
    1    5    0.39485020E-03  0.13025855E-09  0.62563860E-03  0.65715977E-10  0.62563862E-03  0.13058166E-09
    2    5   -0.12750074E-02  0.53855866E-10  0.91004353E-03  0.71294259E-10  0.91004349E-03  0.29898274E-10
    3    5    0.69730316E-03  0.38813067E-11 -0.10622671E-02  0.91723650E-11  0.18030419E-02 -0.57561960E-10
    4    5    0.69730320E-03 -0.23940165E-10  0.18030419E-02  0.10420730E-09 -0.10622671E-02  0.10446679E-09
    5    5   -0.72061599E-03  0.16467094E-10  0.27934697E-03 -0.30699457E-10  0.27934697E-03 -0.28866649E-10
    6    5   -0.98984721E-03  0.61990794E-10 -0.84194980E-03 -0.26144190E-10 -0.84194987E-03 -0.39531494E-10
    7    5    0.21744183E-02  0.63332211E-10  0.29200128E-03  0.15510768E-10 -0.14121077E-02 -0.15524706E-10
    8    5    0.21744184E-02 -0.81781322E-10 -0.14121078E-02 -0.23924713E-12  0.29200132E-03  0.36870183E-11
    1    6    0.44349176E-05 -0.33139102E-10  0.49415332E-03  0.53321627E-11  0.49415335E-03 -0.58659797E-10
    2    6   -0.21078766E-02  0.74376955E-10  0.82639352E-03  0.73624865E-11  0.82639351E-03 -0.32421628E-10
    3    6    0.10110935E-02 -0.50633369E-10  0.11646563E-02 -0.22956023E-10 -0.27628519E-02  0.83637638E-10
    4    6    0.10110935E-02 -0.18851281E-09 -0.27628519E-02  0.17055758E-09  0.11646562E-02 -0.39270461E-10
    5    6   -0.21740158E-02  0.44577994E-10 -0.63852710E-03  0.98732330E-10 -0.63852714E-03  0.76250683E-10
    6    6   -0.72061594E-03 -0.35714206E-10 -0.27934692E-03 -0.18548233E-10 -0.27934693E-03 -0.20028400E-10
    7    6    0.26761048E-02 -0.67164385E-10  0.43726556E-03  0.68571812E-10 -0.12668434E-02  0.26075821E-13
    8    6    0.26761048E-02 -0.20958819E-09 -0.12668434E-02  0.84122874E-10  0.43726562E-03 -0.23591034E-10
    1    7    0.19808973E-02  0.38228592E-10 -0.14823091E-02 -0.11277008E-09  0.17968540E-02 -0.83781994E-11
    2    7    0.13721449E-02  0.10439408E-09  0.80360493E-03 -0.10755621E-10 -0.25926811E-02 -0.38305455E-10
    3    7   -0.82932998E-03 -0.59067659E-10 -0.45215305E-03  0.88807466E-11  0.89155651E-03 -0.17616835E-11
    4    7   -0.61986650E-03  0.12274769E-10 -0.11318919E-02  0.55361035E-10 -0.60066974E-03 -0.53348241E-11
    5    7    0.14372784E-02  0.22750439E-11  0.23764828E-02  0.66202758E-10 -0.28291411E-02  0.24696831E-10
    6    7   -0.89308415E-03 -0.38417493E-10  0.34498346E-02  0.78098236E-10 -0.17557893E-02 -0.22479179E-10
    7    7   -0.25312349E-02 -0.52548157E-12 -0.40513329E-03  0.13825616E-10  0.40513334E-03  0.20012846E-11
    8    7   -0.14107541E-02 -0.13910174E-10 -0.53015523E-02  0.13341496E-09  0.68192115E-02 -0.13758956E-09
    1    8    0.19808973E-02  0.81000320E-10  0.17968540E-02  0.53602283E-10 -0.14823090E-02 -0.32298372E-10
    2    8    0.13721449E-02 -0.49916910E-10 -0.25926811E-02 -0.77202864E-10  0.80360495E-03 -0.34581236E-10
    3    8   -0.61986645E-03 -0.47301550E-10 -0.60066975E-03 -0.88977397E-10 -0.11318918E-02 -0.11567579E-10
    4    8   -0.82932999E-03  0.11076257E-09  0.89155652E-03  0.17556733E-10 -0.45215310E-03 -0.44415572E-10
    5    8    0.14372784E-02 -0.18686713E-11 -0.28291411E-02 -0.11178044E-11  0.23764828E-02  0.47136065E-11
    6    8   -0.89308419E-03 -0.11035570E-09 -0.17557892E-02  0.15031337E-10  0.34498345E-02  0.10381616E-09
    7    8   -0.14107541E-02 -0.63558158E-10  0.68192115E-02  0.11267529E-09 -0.53015523E-02 -0.74075258E-10
    8    8   -0.25312349E-02  0.34272778E-10  0.40513331E-03  0.10763581E-11 -0.40513327E-03  0.14651723E-10

    4   -1   -1
    1    1   -0.13570251E-02 -0.85560007E-12  0.30685933E-03  0.20883560E-10 -0.13570251E-02 -0.83402096E-11
    2    1    0.29249111E-02  0.47855348E-10 -0.29376248E-02 -0.54250082E-10 -0.15810603E-02  0.41022643E-10
    3    1   -0.22110308E-02 -0.65790675E-10  0.35670567E-02  0.50730203E-10 -0.22110308E-02 -0.29445302E-10
    4    1   -0.15810603E-02 -0.85816085E-11 -0.29376248E-02  0.24212329E-10  0.29249111E-02 -0.26409211E-10
    5    1    0.22098404E-02 -0.18178659E-10  0.22098404E-02 -0.10415206E-10 -0.11188646E-02  0.43052443E-10
    6    1    0.15098131E-02  0.31340894E-10 -0.34301496E-02 -0.78774833E-10  0.33819859E-02  0.10691316E-09
    7    1   -0.34301497E-02 -0.45159930E-10  0.15098132E-02  0.77957332E-10  0.33819858E-02  0.14655111E-09
    8    1    0.44633496E-02 -0.90823792E-10  0.44633497E-02 -0.13351890E-09 -0.95595418E-02  0.15266334E-09
    1    2   -0.22377076E-02  0.30662801E-10 -0.10754205E-02  0.42653829E-11  0.19138256E-02  0.99205030E-12
    2    2    0.62506511E-03 -0.17706563E-10  0.19718218E-02 -0.92756925E-11 -0.62506509E-03 -0.12578507E-10
    3    2   -0.19138256E-02  0.18814298E-10 -0.10754205E-02  0.60034041E-11  0.22377076E-02 -0.53081694E-10
    4    2    0.59566519E-03  0.38142026E-10 -0.35036599E-03 -0.83700100E-10 -0.59566521E-03 -0.98074744E-11
    5    2    0.15098131E-02 -0.44375008E-10 -0.33819859E-02  0.91919347E-10  0.34301497E-02 -0.10391512E-09
    6    2    0.22098404E-02  0.14709344E-10  0.11188646E-02 -0.24911446E-10 -0.22098404E-02 -0.10902162E-10
    7    2   -0.34301496E-02  0.30014461E-10 -0.33819859E-02  0.18513150E-11 -0.15098131E-02 -0.12024124E-10
    8    2    0.44633496E-02 -0.13933214E-09  0.95595417E-02 -0.40900264E-09 -0.44633496E-02  0.17516187E-09
    1    3    0.22110308E-02 -0.52623988E-11  0.35670567E-02  0.76240641E-10  0.22110309E-02  0.30199886E-10
    2    3    0.15810602E-02  0.32807122E-10 -0.29376248E-02 -0.24271873E-10 -0.29249111E-02 -0.96085183E-11
    3    3    0.13570251E-02  0.51708627E-10  0.30685932E-03 -0.12865271E-10  0.13570251E-02  0.60404343E-10
    4    3   -0.29249111E-02  0.16987502E-10 -0.29376247E-02  0.30677203E-10  0.15810603E-02  0.88860680E-10
    5    3   -0.33819859E-02 -0.19917002E-10  0.15098131E-02  0.22085488E-10  0.34301496E-02 -0.16406799E-10
    6    3   -0.33819859E-02 -0.29496204E-10 -0.34301496E-02 -0.47891575E-10 -0.15098131E-02 -0.11114422E-10
    7    3    0.11188646E-02 -0.58574530E-10  0.22098404E-02 -0.27834141E-10 -0.22098404E-02 -0.71709548E-11
    8    3    0.95595418E-02 -0.20167230E-09  0.44633496E-02 -0.11966114E-09 -0.44633496E-02  0.11165004E-09
    1    4    0.19138256E-02  0.36038027E-10 -0.10754205E-02 -0.22753798E-10 -0.22377076E-02 -0.33670088E-10
    2    4   -0.59566520E-03  0.29676598E-10 -0.35036592E-03 -0.41266702E-10  0.59566515E-03  0.13428226E-10
    3    4    0.22377076E-02 -0.32387323E-10 -0.10754205E-02  0.20992827E-11 -0.19138256E-02 -0.74356787E-10
    4    4   -0.62506510E-03 -0.76617131E-11  0.19718218E-02  0.43253853E-10  0.62506510E-03 -0.99052880E-11
    5    4   -0.24500035E-02 -0.68313509E-11 -0.24500036E-02  0.45247331E-10 -0.32778386E-02 -0.18723871E-10
    6    4   -0.24500035E-02 -0.31967902E-10  0.32778385E-02  0.77858501E-10  0.24500036E-02  0.67197771E-10
    7    4    0.32778387E-02  0.70517740E-10 -0.24500035E-02  0.25810870E-10  0.24500035E-02  0.38179456E-10
    8    4   -0.70162282E-02  0.18282325E-10 -0.70162282E-02  0.33304634E-10  0.70162282E-02 -0.64149576E-10
    1    5   -0.35065582E-03 -0.70667011E-10 -0.70145915E-03  0.61203491E-10  0.16712893E-02 -0.14709343E-10
    2    5    0.28025612E-02  0.67970763E-10  0.11742579E-02 -0.33072997E-10  0.10121531E-02  0.28837473E-10
    3    5   -0.16145262E-03 -0.41903268E-10 -0.28263357E-02 -0.56719138E-10 -0.20619703E-02 -0.37137087E-10
    4    5   -0.35978408E-03  0.86501612E-12 -0.48666947E-03 -0.16844299E-10  0.43384493E-03 -0.30121049E-10
    5    5    0.27934697E-03  0.10604673E-10 -0.72061598E-03  0.12054487E-10  0.27934698E-03  0.21312624E-10
    6    5   -0.20903769E-03 -0.68862639E-10  0.26754573E-02  0.15562630E-10 -0.43791313E-03 -0.23026032E-10
    7    5    0.13702745E-02  0.83780796E-10 -0.32020715E-02 -0.71317881E-10 -0.38952846E-03  0.66568206E-10
    8    5   -0.11699399E-02  0.60497511E-11  0.19322505E-02 -0.32479096E-10  0.52298909E-03 -0.32835795E-10
    1    6   -0.10191829E-02  0.33703523E-10 -0.39826323E-03  0.10976560E-10 -0.17847905E-02  0.19478653E-10
    2    6   -0.26379546E-02  0.45032696E-10  0.23373737E-02 -0.34612528E-10  0.26379546E-02  0.61889821E-11
    3    6    0.17847905E-02  0.42512964E-10 -0.39826329E-03  0.42922945E-11  0.10191829E-02 -0.43177566E-10
    4    6    0.11778826E-02 -0.17269038E-10  0.27346067E-02 -0.15325824E-09 -0.11778826E-02  0.13486929E-11
    5    6    0.22376933E-02 -0.14665381E-09  0.15760680E-02 -0.74967703E-10 -0.98068255E-03  0.44484587E-10
    6    6   -0.40513331E-03  0.45744299E-11 -0.25312348E-02 -0.27866089E-10  0.40513329E-03 -0.12545102E-10
    7    6    0.98068253E-03  0.13366353E-10  0.15760679E-02 -0.53986522E-10 -0.22376933E-02  0.23661832E-10
    8    6   -0.46381246E-02  0.32818510E-09 -0.20741817E-02  0.14405390E-09  0.46381247E-02 -0.29406248E-09
    1    7    0.20619703E-02  0.38072159E-10 -0.28263357E-02 -0.22380655E-09  0.16145258E-03  0.11095215E-09
    2    7   -0.10121531E-02 -0.64168078E-10  0.11742579E-02  0.19720538E-10 -0.28025612E-02 -0.81801803E-10
    3    7   -0.16712893E-02  0.98441256E-10 -0.70145910E-03  0.45092733E-10  0.35065581E-03  0.79762067E-10
    4    7   -0.43384496E-03  0.36470033E-10 -0.48666950E-03 -0.56820644E-11  0.35978410E-03 -0.95404122E-11
    5    7    0.38952850E-03 -0.10382641E-09 -0.32020715E-02  0.72884175E-11 -0.13702744E-02 -0.80988316E-10
    6    7    0.43791310E-03  0.19383907E-10  0.26754573E-02  0.52952476E-10  0.20903771E-03  0.31400560E-10
    7    7   -0.27934697E-03 -0.13206332E-10 -0.72061599E-03  0.52467139E-10 -0.27934696E-03 -0.34549240E-10
    8    7   -0.52298908E-03 -0.18026785E-11  0.19322505E-02 -0.34926542E-10  0.11699398E-02  0.18331536E-10
    1    8   -0.17170848E-02 -0.35834072E-11  0.13884228E-02  0.29793842E-10  0.34925377E-02  0.55932048E-10
    2    8   -0.76352683E-03 -0.10110336E-09 -0.49838729E-04  0.12399662E-09  0.76352682E-03  0.57479400E-10
    3    8   -0.34925378E-02 -0.35588098E-10  0.13884228E-02 -0.61851935E-11  0.17170849E-02  0.48447737E-10
    4    8    0.26262482E-03  0.25075813E-10 -0.18799547E-02  0.92975350E-10 -0.26262485E-03 -0.19704777E-10
    5    8   -0.17777918E-02 -0.13460461E-11  0.38592921E-03  0.29596677E-11  0.30348026E-02  0.33634385E-10
    6    8    0.42510603E-02  0.23971953E-09  0.11573971E-02  0.21360262E-09 -0.42510603E-02 -0.24162070E-09
    7    8   -0.30348026E-02 -0.74062675E-10  0.38592914E-03  0.18688932E-10  0.17777919E-02  0.35298782E-10
    8    8    0.40513331E-03  0.43543443E-11 -0.25312348E-02  0.32656259E-10 -0.40513329E-03 -0.26302039E-10

    4    0   -2
    1    1   -0.14436375E-03 -0.38811035E-11 -0.14436373E-03 -0.12582733E-10 -0.14436374E-03 -0.18343063E-10
    2    1   -0.14205812E-03  0.77446004E-10  0.71059971E-03 -0.36611715E-10  0.71059972E-03 -0.80204338E-10
    3    1    0.71059973E-03 -0.46314326E-10 -0.14205814E-03  0.46012381E-10  0.71059971E-03 -0.42691817E-10
    4    1    0.71059975E-03 -0.13592010E-10  0.71059973E-03 -0.86738408E-10 -0.14205811E-03 -0.86446796E-11
    5    1    0.23392917E-02  0.10467522E-11 -0.17141891E-03 -0.69612400E-10 -0.17141890E-03 -0.10153038E-09
    6    1   -0.12500652E-02 -0.27530208E-10  0.21989947E-03  0.38002130E-10  0.21989947E-03  0.43309478E-10
    7    1    0.77666798E-03  0.79099204E-10  0.26409728E-02 -0.81150228E-10 -0.22701202E-02  0.14874874E-09
    8    1    0.77666795E-03 -0.17536354E-10 -0.22701202E-02  0.44997441E-10  0.26409728E-02  0.17324117E-10
    1    2   -0.75590322E-02  0.14675610E-09  0.25453728E-02 -0.56225240E-10  0.25453729E-02 -0.84291026E-10
    2    2    0.83010677E-03  0.39427685E-10  0.10845900E-02  0.31370831E-10  0.10845900E-02  0.32575184E-10
    3    2    0.21048764E-05 -0.69048994E-10 -0.25112897E-03 -0.17116367E-10 -0.21449894E-02  0.39875900E-10
    4    2    0.21048582E-05 -0.55598261E-10 -0.21449894E-02  0.55464499E-10 -0.25112901E-03  0.14368766E-10
    5    2    0.50818404E-02 -0.11807801E-09  0.29506821E-03 -0.29240507E-10  0.29506827E-03  0.23242587E-10
    6    2    0.43517533E-02 -0.72358640E-10 -0.24615532E-03 -0.46928931E-10 -0.24615530E-03 -0.65092483E-10
    7    2   -0.52882393E-02  0.11363850E-09 -0.17147488E-03 -0.19003358E-10 -0.33178987E-03  0.16090851E-10
    8    2   -0.52882393E-02  0.30809519E-09 -0.33178987E-03 -0.42764648E-10 -0.17147490E-03 -0.14207913E-10
    1    3    0.25453728E-02 -0.51430054E-10 -0.75590322E-02 -0.10313275E-09  0.25453728E-02 -0.33385509E-10
    2    3   -0.25112896E-03 -0.39716116E-11  0.21048540E-05  0.37922236E-10 -0.21449894E-02 -0.25412961E-10
    3    3    0.10845900E-02  0.54503014E-10  0.83010676E-03  0.47895740E-10  0.10845900E-02  0.51709758E-10
    4    3   -0.21449894E-02  0.24472859E-11  0.21048447E-05  0.96562012E-11 -0.25112899E-03 -0.46642287E-10
    5    3   -0.11827302E-02 -0.39109255E-10  0.39044244E-02  0.58472959E-11 -0.33341257E-02  0.27112083E-10
    6    3   -0.11986758E-02 -0.19040157E-10  0.26594867E-02  0.60702413E-10 -0.13518561E-02 -0.69488941E-11
    7    3   -0.27385868E-02 -0.73774435E-10 -0.41136024E-02 -0.71030735E-10  0.36304196E-02 -0.45951561E-10
    8    3    0.56020592E-02 -0.84277525E-10  0.71480592E-03  0.45746488E-10 -0.25837556E-02 -0.18311836E-10
    1    4    0.25453728E-02  0.24694743E-12  0.25453727E-02  0.54315784E-10 -0.75590322E-02 -0.66514458E-10
    2    4   -0.25112895E-03  0.22594819E-11 -0.21449894E-02 -0.42871071E-10  0.21048835E-05 -0.39285297E-10
    3    4   -0.21449894E-02  0.30255385E-10 -0.25112893E-03 -0.90428225E-10  0.21048632E-05  0.12657269E-10
    4    4    0.10845900E-02  0.68779969E-10  0.10845900E-02  0.85042369E-10  0.83010679E-03  0.11465619E-09
    5    4   -0.11827301E-02  0.25691442E-12 -0.33341257E-02 -0.12583442E-10  0.39044244E-02  0.46643483E-11
    6    4   -0.11986757E-02  0.92391629E-11 -0.13518561E-02  0.48313728E-11  0.26594867E-02  0.21741164E-09
    7    4    0.56020593E-02  0.83313820E-10 -0.25837556E-02 -0.21306880E-10  0.71480589E-03  0.40700055E-10
    8    4   -0.27385867E-02  0.53653333E-10  0.36304195E-02  0.22609929E-11 -0.41136023E-02  0.75708341E-10
    1    5    0.22384655E-02  0.14896973E-09 -0.64995591E-03  0.16822611E-09 -0.64995584E-03  0.16403473E-09
    2    5   -0.80494274E-03  0.58596958E-10 -0.37315747E-03  0.20689872E-11 -0.37315750E-03 -0.10846720E-10
    3    5    0.46952628E-03 -0.47665925E-10 -0.59971867E-03 -0.26083654E-10 -0.17902570E-04 -0.86251848E-10
    4    5    0.46952619E-03  0.18251506E-09 -0.17902625E-04  0.18402251E-09 -0.59971877E-03  0.15477745E-09
    5    5   -0.54301769E-03  0.14794902E-10 -0.54301771E-03  0.12041961E-10 -0.54301768E-03  0.22370314E-10
    6    5   -0.29717289E-02 -0.95529666E-10  0.27775044E-03  0.28661713E-10  0.27775052E-03 -0.12245937E-10
    7    5    0.14931944E-02  0.95534990E-10 -0.41871728E-02  0.12638176E-10  0.31677637E-02  0.85715012E-10
    8    5    0.14931944E-02 -0.25657355E-10  0.31677637E-02  0.14217631E-10 -0.41871728E-02 -0.82096871E-11
    1    6   -0.90283047E-03  0.62770932E-10  0.19335882E-02 -0.10943368E-09  0.19335881E-02 -0.59792769E-10
    2    6    0.24259242E-02  0.71462745E-10  0.13525100E-03 -0.55886944E-10  0.13525101E-03  0.23538003E-11
    3    6   -0.22214337E-05  0.43749363E-10 -0.10755806E-02  0.17897769E-09  0.80548714E-03 -0.24583575E-12
    4    6   -0.22213966E-05  0.75182361E-10  0.80548713E-03  0.14813786E-09 -0.10755805E-02  0.29057427E-09
    5    6   -0.34298821E-03  0.66834136E-10  0.59862838E-03 -0.45966448E-10  0.59862836E-03 -0.52655167E-10
    6    6   -0.12915515E-02  0.59637996E-10 -0.77628615E-03  0.89739634E-10 -0.77628614E-03  0.95554711E-10
    7    6   -0.13624432E-02  0.17593423E-10  0.36706663E-02 -0.84068536E-10 -0.21588531E-02  0.81472157E-10
    8    6   -0.13624432E-02  0.13155329E-09 -0.21588531E-02  0.11066203E-09  0.36706663E-02 -0.10212953E-09
    1    7   -0.24701536E-02 -0.22566821E-09  0.20734952E-02 -0.16625867E-09  0.10599733E-04 -0.10204787E-09
    2    7   -0.41419013E-03  0.38113287E-10  0.44479583E-03  0.98466861E-10  0.16664700E-02 -0.75204698E-10
    3    7   -0.24458931E-02  0.17509940E-10  0.12235541E-02  0.81486029E-11 -0.10472436E-02 -0.88434097E-10
    4    7    0.23217716E-02 -0.57419835E-10 -0.16138636E-02 -0.78498732E-11  0.53970457E-04  0.55384230E-10
    5    7    0.32611989E-03 -0.98184331E-11 -0.70479774E-04 -0.68608669E-10  0.11689561E-02  0.13652944E-10
    6    7    0.19491464E-02  0.29165463E-10  0.35907669E-03  0.17939237E-10 -0.24579124E-03 -0.68694236E-10
    7    7   -0.77628613E-03 -0.49296500E-10 -0.12915514E-02 -0.10936938E-10 -0.77628615E-03 -0.56007548E-10
    8    7   -0.13615748E-02  0.13934971E-10 -0.21597215E-02  0.47616108E-10  0.30649300E-02 -0.11572436E-09
    1    8   -0.24701536E-02 -0.60947634E-10  0.10599813E-04  0.18785521E-10  0.20734952E-02  0.65833374E-11
    2    8   -0.41419010E-03 -0.64746374E-10  0.16664700E-02  0.19841008E-09  0.44479587E-03 -0.56228306E-10
    3    8    0.23217716E-02 -0.55634241E-10  0.53970413E-04 -0.97466337E-10 -0.16138637E-02 -0.10502759E-09
    4    8   -0.24458931E-02  0.57269903E-10 -0.10472437E-02  0.31971758E-10  0.12235541E-02 -0.44938797E-10
    5    8    0.32611984E-03 -0.15006616E-10  0.11689561E-02 -0.98928326E-11 -0.70479707E-04  0.40839653E-10
    6    8    0.19491464E-02  0.10416573E-09 -0.24579121E-03  0.96515176E-10  0.35907670E-03  0.11346303E-10
    7    8   -0.13615749E-02  0.46676529E-11  0.30649301E-02  0.30725559E-10 -0.21597215E-02 -0.29117219E-10
    8    8   -0.77628612E-03  0.80964689E-10 -0.77628614E-03  0.87062296E-10 -0.12915515E-02  0.68956091E-10
