 written on  3Mar2025 at 15:06:01 
  -2.7154998339172227        0.0000000000000000        2.7154998339172227     
   0.0000000000000000        2.7154998339172227        2.7154998339172227     
  -2.7154998339172227        2.7154998339172227        0.0000000000000000     
           8
          19
    6    2    2    6    2    6    2    2    2    1    2    2    2    6    2
    6    2    2    6

   -1   -1    1
    1    1   -0.20997497E+00  0.76013491E-16
    2    1   -0.33694759E+00  0.93981963E-01
    3    1   -0.12367508E-01 -0.12328823E-02
    4    1    0.96858450E-01  0.13224124E-01
    5    1    0.91454038E-03 -0.12394739E-01
    6    1    0.14523219E-01 -0.38408574E-02
    7    1    0.56256061E-02  0.41266901E-01
    8    1    0.26609008E+00 -0.65620795E-01
    1    2   -0.33694759E+00 -0.93981963E-01
    2    2   -0.20997461E+00  0.36436867E-16
    3    2    0.13997338E-01  0.54515030E-02
    4    2    0.25159767E+00  0.10867046E+00
    5    2   -0.14110348E-01  0.39185833E-01
    6    2   -0.12428153E-01 -0.16636239E-03
    7    2    0.16904085E-02 -0.12312702E-01
    8    2    0.97711162E-01  0.29541507E-02
    1    3   -0.12367508E-01  0.12328823E-02
    2    3    0.13997338E-01 -0.54515030E-02
    3    3   -0.20992180E+00 -0.45085097E-17
    4    3   -0.12419519E-01 -0.45232667E-03
    5    3    0.25121131E-02  0.97699706E-01
    6    3    0.91539806E-01 -0.34235441E-01
    7    3    0.22738703E-01  0.95048651E-01
    8    3   -0.11712498E-01  0.41566986E-02
    1    4    0.96858450E-01 -0.13224124E-01
    2    4    0.25159767E+00 -0.10867046E+00
    3    4   -0.12419519E-01  0.45232667E-03
    4    4   -0.20997353E+00  0.80899075E-16
    5    4    0.93237857E-03  0.14991393E-01
    6    4   -0.11475663E-01  0.47731361E-02
    7    4    0.11156420E-01  0.40126404E-01
    8    4   -0.19539450E+00  0.77476296E-01
    1    5    0.91454038E-03  0.12394739E-01
    2    5   -0.14110348E-01 -0.39185833E-01
    3    5    0.25121131E-02 -0.97699706E-01
    4    5    0.93237857E-03 -0.14991393E-01
    5    5   -0.20991980E+00  0.72645824E-16
    6    5   -0.31869806E-01 -0.92389588E-01
    7    5    0.95602279E-01 -0.20288429E-01
    8    5   -0.12918637E-01 -0.39594594E-01
    1    6    0.14523219E-01  0.38408574E-02
    2    6   -0.12428153E-01  0.16636239E-03
    3    6    0.91539806E-01  0.34235441E-01
    4    6   -0.11475663E-01 -0.47731361E-02
    5    6   -0.31869806E-01  0.92389588E-01
    6    6   -0.20992193E+00  0.15735782E-16
    7    6   -0.11996994E-01  0.96992170E-01
    8    6   -0.12426388E-01 -0.20926033E-03
    1    7    0.56256061E-02 -0.41266901E-01
    2    7    0.16904085E-02  0.12312702E-01
    3    7    0.22738703E-01 -0.95048651E-01
    4    7    0.11156420E-01 -0.40126404E-01
    5    7    0.95602279E-01  0.20288429E-01
    6    7   -0.11996994E-01 -0.96992170E-01
    7    7   -0.20992069E+00 -0.72116593E-16
    8    7   -0.15939855E-02 -0.14934672E-01
    1    8    0.26609008E+00  0.65620795E-01
    2    8    0.97711162E-01 -0.29541507E-02
    3    8   -0.11712498E-01 -0.41566986E-02
    4    8   -0.19539450E+00 -0.77476296E-01
    5    8   -0.12918637E-01  0.39594594E-01
    6    8   -0.12426388E-01  0.20926033E-03
    7    8   -0.15939855E-02  0.14934672E-01
    8    8   -0.20997391E+00  0.35585460E-16

   -1    0    0
    1    1    0.16923464E+00  0.42122780E-15
    2    1    0.26398617E+00 -0.73631229E-01
    3    1    0.41490950E-01  0.41344330E-02
    4    1    0.27154288E+00  0.37080012E-01
    5    1   -0.30676663E-02  0.41584359E-01
    6    1    0.24912183E+00 -0.65886327E-01
    7    1    0.56331524E-02  0.41314260E-01
    8    1    0.26609053E+00 -0.65621552E-01
    1    2    0.26398617E+00  0.73631229E-01
    2    2   -0.19237204E+00  0.39780429E-15
    3    2    0.16495973E+01  0.64236247E+00
    4    2    0.25159726E+00  0.10867008E+00
    5    2    0.33349103E+00 -0.92618585E+00
    6    2   -0.98430690E+00 -0.13245067E-01
    7    2    0.13397096E+00 -0.97523311E+00
    8    2    0.27393671E+00  0.82810695E-02
    1    3    0.41490950E-01 -0.41344330E-02
    2    3    0.16495973E+01 -0.64236247E+00
    3    3   -0.19229015E+00  0.36223958E-15
    4    3   -0.12421557E-01 -0.45144382E-03
    5    3   -0.89992003E-02 -0.34977622E+00
    6    3    0.25674007E+00 -0.96018477E-01
    7    3    0.63777636E-01  0.26658511E+00
    8    3   -0.92757683E+00  0.32928870E+00
    1    4    0.27154288E+00 -0.37080012E-01
    2    4    0.25159726E+00 -0.10867008E+00
    3    4   -0.12421557E-01  0.45144382E-03
    4    4   -0.19237133E+00  0.43979873E-15
    5    4    0.93328369E-03  0.14992406E-01
    6    4    0.38454438E-01 -0.15998911E-01
    7    4   -0.33294418E-02 -0.11974292E-01
    8    4    0.25476820E+00 -0.10101811E+00
    1    5   -0.30676663E-02 -0.41584359E-01
    2    5    0.33349103E+00  0.92618585E+00
    3    5   -0.89992003E-02  0.34977622E+00
    4    5    0.93328369E-03 -0.14992406E-01
    5    5   -0.19228899E+00  0.37260731E-15
    6    5   -0.89383030E-01 -0.25912455E+00
    7    5    0.26813650E+00 -0.56897440E-01
    8    5   -0.54449121E+00 -0.16687491E+01
    1    6    0.24912183E+00  0.65886327E-01
    2    6   -0.98430690E+00  0.13245067E-01
    3    6    0.25674007E+00  0.96018477E-01
    4    6    0.38454438E-01  0.15998911E-01
    5    6   -0.89383030E-01  0.25912455E+00
    6    6    0.16907103E+00  0.40955210E-15
    7    6    0.25805693E-01 -0.20863290E+00
    8    6    0.17550869E+01  0.29428815E-01
    1    7    0.56331524E-02 -0.41314260E-01
    2    7    0.13397096E+00  0.97523311E+00
    3    7    0.63777636E-01 -0.26658511E+00
    4    7   -0.33294418E-02  0.11974292E-01
    5    7    0.26813650E+00  0.56897440E-01
    6    7    0.25805693E-01  0.20863290E+00
    7    7    0.16907106E+00  0.34407981E-15
    8    7   -0.44759320E-01 -0.41948911E+00
    1    8    0.26609053E+00  0.65621552E-01
    2    8    0.27393671E+00 -0.82810695E-02
    3    8   -0.92757683E+00 -0.32928870E+00
    4    8    0.25476820E+00  0.10101811E+00
    5    8   -0.54449121E+00  0.16687491E+01
    6    8    0.17550869E+01 -0.29428815E-01
    7    8   -0.44759320E-01  0.41948911E+00
    8    8    0.16923701E+00  0.30907341E-15

   -1    0    1
    1    1    0.16923482E+00 -0.22232883E-16
    2    1    0.26398715E+00 -0.73632838E-01
    3    1   -0.97944354E+00 -0.97610196E-01
    4    1   -0.20826527E+00 -0.28437435E-01
    5    1   -0.12908885E+00  0.17505797E+01
    6    1    0.40784613E+00 -0.10786620E+00
    7    1    0.23710528E+00  0.17392456E+01
    8    1   -0.20408049E+00  0.50328122E-01
    1    2    0.26398715E+00  0.73632838E-01
    2    2   -0.19237232E+00  0.36423011E-16
    3    2    0.13998177E-01  0.54502541E-02
    4    2   -0.32113421E+00 -0.13870305E+00
    5    2    0.42108083E-02 -0.11694498E-01
    6    2    0.41645038E-01  0.56029683E-03
    7    2    0.16914536E-02 -0.12311871E-01
    8    2   -0.34964604E+00 -0.10570007E-01
    1    3   -0.97944354E+00  0.97610196E-01
    2    3    0.13998177E-01 -0.54502541E-02
    3    3   -0.19228961E+00  0.69845340E-16
    4    3   -0.98364311E+00 -0.35800523E-01
    5    3    0.70510311E-02  0.27401805E+00
    6    3    0.25674062E+00 -0.96018852E-01
    7    3   -0.81409064E-01 -0.34028835E+00
    8    3   -0.11711593E-01  0.41570381E-02
    1    4   -0.20826527E+00  0.28437435E-01
    2    4   -0.32113421E+00  0.13870305E+00
    3    4   -0.98364311E+00  0.35800523E-01
    4    4    0.16923258E+00 -0.45536586E-16
    5    4    0.26180752E-01  0.42105527E+00
    6    4    0.16206602E+01 -0.67427322E+00
    7    4    0.47023295E+00  0.16911774E+01
    8    4    0.25476430E+00 -0.10101655E+00
    1    5   -0.12908885E+00 -0.17505797E+01
    2    5    0.42108083E-02  0.11694498E-01
    3    5    0.70510311E-02 -0.27401805E+00
    4    5    0.26180752E-01 -0.42105527E+00
    5    5    0.16906750E+00 -0.86737613E-17
    6    5    0.68551646E-01  0.19873484E+00
    7    5    0.26813810E+00 -0.56899271E-01
    8    5    0.38556685E-02  0.11814801E-01
    1    6    0.40784613E+00  0.10786620E+00
    2    6    0.41645038E-01 -0.56029683E-03
    3    6    0.25674062E+00  0.96018852E-01
    4    6    0.16206602E+01  0.67427322E+00
    5    6    0.68551646E-01 -0.19873484E+00
    6    6    0.16906854E+00 -0.93070624E-17
    7    6   -0.33646996E-01  0.27203548E+00
    8    6    0.41641983E-01  0.69828567E-03
    1    7    0.23710528E+00 -0.17392456E+01
    2    7    0.16914536E-02  0.12311871E-01
    3    7   -0.81409064E-01  0.34028835E+00
    4    7    0.47023295E+00 -0.16911774E+01
    5    7    0.26813810E+00  0.56899271E-01
    6    7   -0.33646996E-01 -0.27203548E+00
    7    7   -0.19228904E+00 -0.13348445E-16
    8    7   -0.15932584E-02 -0.14935659E-01
    1    8   -0.20408049E+00 -0.50328122E-01
    2    8   -0.34964604E+00  0.10570007E-01
    3    8   -0.11711593E-01 -0.41570381E-02
    4    8    0.25476430E+00  0.10101655E+00
    5    8    0.38556685E-02 -0.11814801E-01
    6    8    0.41641983E-01 -0.69828567E-03
    7    8   -0.15932584E-02  0.14935659E-01
    8    8   -0.19237222E+00 -0.54505646E-16

   -1    1   -1
    1    1   -0.20997497E+00  0.31729691E-16
    2    1   -0.33694759E+00  0.93981963E-01
    3    1   -0.12367508E-01 -0.12328823E-02
    4    1    0.96858450E-01  0.13224124E-01
    5    1    0.91454038E-03 -0.12394739E-01
    6    1    0.14523219E-01 -0.38408574E-02
    7    1    0.56256061E-02  0.41266901E-01
    8    1    0.26609008E+00 -0.65620795E-01
    1    2   -0.33694759E+00 -0.93981963E-01
    2    2   -0.20997461E+00  0.36437125E-16
    3    2    0.13997338E-01  0.54515030E-02
    4    2    0.25159767E+00  0.10867046E+00
    5    2   -0.14110348E-01  0.39185833E-01
    6    2   -0.12428153E-01 -0.16636239E-03
    7    2    0.16904085E-02 -0.12312702E-01
    8    2    0.97711162E-01  0.29541507E-02
    1    3   -0.12367508E-01  0.12328823E-02
    2    3    0.13997338E-01 -0.54515030E-02
    3    3   -0.20992180E+00 -0.45083738E-17
    4    3   -0.12419519E-01 -0.45232667E-03
    5    3    0.25121131E-02  0.97699706E-01
    6    3    0.91539806E-01 -0.34235441E-01
    7    3    0.22738703E-01  0.95048651E-01
    8    3   -0.11712498E-01  0.41566986E-02
    1    4    0.96858450E-01 -0.13224124E-01
    2    4    0.25159767E+00 -0.10867046E+00
    3    4   -0.12419519E-01  0.45232667E-03
    4    4   -0.20997353E+00  0.80899597E-16
    5    4    0.93237857E-03  0.14991393E-01
    6    4   -0.11475663E-01  0.47731361E-02
    7    4    0.11156420E-01  0.40126404E-01
    8    4   -0.19539450E+00  0.77476296E-01
    1    5    0.91454038E-03  0.12394739E-01
    2    5   -0.14110348E-01 -0.39185833E-01
    3    5    0.25121131E-02 -0.97699706E-01
    4    5    0.93237857E-03 -0.14991393E-01
    5    5   -0.20991980E+00  0.72646212E-16
    6    5   -0.31869806E-01 -0.92389588E-01
    7    5    0.95602279E-01 -0.20288429E-01
    8    5   -0.12918637E-01 -0.39594594E-01
    1    6    0.14523219E-01  0.38408574E-02
    2    6   -0.12428153E-01  0.16636239E-03
    3    6    0.91539806E-01  0.34235441E-01
    4    6   -0.11475663E-01 -0.47731361E-02
    5    6   -0.31869806E-01  0.92389588E-01
    6    6   -0.20992193E+00 -0.28517774E-16
    7    6   -0.11996994E-01  0.96992170E-01
    8    6   -0.12426388E-01 -0.20926033E-03
    1    7    0.56256061E-02 -0.41266901E-01
    2    7    0.16904085E-02  0.12312702E-01
    3    7    0.22738703E-01 -0.95048651E-01
    4    7    0.11156420E-01 -0.40126404E-01
    5    7    0.95602279E-01  0.20288429E-01
    6    7   -0.11996994E-01 -0.96992170E-01
    7    7   -0.20992069E+00 -0.27862919E-16
    8    7   -0.15939855E-02 -0.14934672E-01
    1    8    0.26609008E+00  0.65620795E-01
    2    8    0.97711162E-01 -0.29541507E-02
    3    8   -0.11712498E-01 -0.41566986E-02
    4    8   -0.19539450E+00 -0.77476296E-01
    5    8   -0.12918637E-01  0.39594594E-01
    6    8   -0.12426388E-01  0.20926033E-03
    7    8   -0.15939855E-02  0.14934672E-01
    8    8   -0.20997391E+00  0.79869508E-16

   -1    1    0
    1    1   -0.19236985E+00  0.17858380E-16
    2    1    0.94163131E-01 -0.26264016E-01
    3    1   -0.12368227E-01 -0.12319352E-02
    4    1    0.27154140E+00  0.37077836E-01
    5    1   -0.30625976E-02  0.41536109E-01
    6    1    0.14522588E-01 -0.38400872E-02
    7    1   -0.16802075E-02 -0.12313824E-01
    8    1    0.94912368E-01 -0.23406142E-01
    1    2    0.94163131E-01  0.26264016E-01
    2    2   -0.19237021E+00  0.35255984E-16
    3    2    0.13997908E-01  0.54506712E-02
    4    2    0.89744050E-01  0.38760929E-01
    5    2    0.42113290E-02 -0.11691914E-01
    6    2   -0.12427785E-01 -0.16662451E-03
    7    2   -0.56673323E-02  0.41260375E-01
    8    2    0.27393642E+00  0.82815407E-02
    1    3   -0.12368227E-01  0.12319352E-02
    2    3    0.13997908E-01 -0.54506712E-02
    3    3   -0.19228850E+00 -0.43778926E-16
    4    3    0.41669145E-01  0.15171859E-02
    5    3    0.70495818E-02  0.27401735E+00
    6    3   -0.32772287E+00  0.12256538E+00
    7    3    0.63776446E-01  0.26658400E+00
    8    3    0.39293188E-01 -0.13948862E-01
    1    4    0.27154140E+00 -0.37077836E-01
    2    4    0.89744050E-01 -0.38760929E-01
    3    4    0.41669145E-01 -0.15171859E-02
    4    4    0.16923684E+00 -0.64618498E-16
    5    4    0.15992051E-01  0.25719186E+00
    6    4    0.38498069E-01 -0.16016582E-01
    7    4    0.11170192E-01  0.40172305E-01
    8    4    0.90873779E-01 -0.36031761E-01
    1    5   -0.30625976E-02 -0.41536109E-01
    2    5    0.42113290E-02  0.11691914E-01
    3    5    0.70495818E-02 -0.27401735E+00
    4    5    0.15992051E-01 -0.25719186E+00
    5    5    0.16907067E+00  0.32959672E-16
    6    5   -0.89382597E-01 -0.25912476E+00
    7    5   -0.20564209E+00  0.43638215E-01
    8    5   -0.12934323E-01 -0.39639219E-01
    1    6    0.14522588E-01  0.38400872E-02
    2    6   -0.12427785E-01  0.16662451E-03
    3    6   -0.32772287E+00 -0.12256538E+00
    4    6    0.38498069E-01  0.16016582E-01
    5    6   -0.89382597E-01  0.25912476E+00
    6    6   -0.19228917E+00  0.24049731E-16
    7    6   -0.33647478E-01  0.27203406E+00
    8    6    0.41690643E-01  0.69976772E-03
    1    7   -0.16802075E-02  0.12313824E-01
    2    7   -0.56673323E-02 -0.41260375E-01
    3    7    0.63776446E-01 -0.26658400E+00
    4    7    0.11170192E-01 -0.40172305E-01
    5    7   -0.20564209E+00 -0.43638215E-01
    6    7   -0.33647478E-01 -0.27203406E+00
    7    7    0.16906963E+00 -0.57574418E-16
    8    7   -0.27339535E-01 -0.25623100E+00
    1    8    0.94912368E-01  0.23406142E-01
    2    8    0.27393642E+00 -0.82815407E-02
    3    8    0.39293188E-01  0.13948862E-01
    4    8    0.90873779E-01  0.36031761E-01
    5    8   -0.12934323E-01  0.39639219E-01
    6    8    0.41690643E-01 -0.69976772E-03
    7    8   -0.27339535E-01  0.25623100E+00
    8    8    0.16923448E+00  0.51336892E-16

   -1    1    1
    1    1   -0.20997497E+00  0.29573685E-16
    2    1   -0.33694759E+00  0.93981963E-01
    3    1   -0.12367508E-01 -0.12328823E-02
    4    1    0.96858450E-01  0.13224124E-01
    5    1    0.91454038E-03 -0.12394739E-01
    6    1    0.14523219E-01 -0.38408574E-02
    7    1    0.56256061E-02  0.41266901E-01
    8    1    0.26609008E+00 -0.65620795E-01
    1    2   -0.33694759E+00 -0.93981963E-01
    2    2   -0.20997461E+00  0.34281208E-16
    3    2    0.13997338E-01  0.54515030E-02
    4    2    0.25159767E+00  0.10867046E+00
    5    2   -0.14110348E-01  0.39185833E-01
    6    2   -0.12428153E-01 -0.16636239E-03
    7    2    0.16904085E-02 -0.12312702E-01
    8    2    0.97711162E-01  0.29541507E-02
    1    3   -0.12367508E-01  0.12328823E-02
    2    3    0.13997338E-01 -0.54515030E-02
    3    3   -0.20992180E+00 -0.66678311E-17
    4    3   -0.12419519E-01 -0.45232667E-03
    5    3    0.25121131E-02  0.97699706E-01
    6    3    0.91539806E-01 -0.34235441E-01
    7    3    0.22738703E-01  0.95048651E-01
    8    3   -0.11712498E-01  0.41566986E-02
    1    4    0.96858450E-01 -0.13224124E-01
    2    4    0.25159767E+00 -0.10867046E+00
    3    4   -0.12419519E-01  0.45232667E-03
    4    4   -0.20997353E+00  0.34459720E-16
    5    4    0.93237857E-03  0.14991393E-01
    6    4   -0.11475663E-01  0.47731361E-02
    7    4    0.11156420E-01  0.40126404E-01
    8    4   -0.19539450E+00  0.77476296E-01
    1    5    0.91454038E-03  0.12394739E-01
    2    5   -0.14110348E-01 -0.39185833E-01
    3    5    0.25121131E-02 -0.97699706E-01
    4    5    0.93237857E-03 -0.14991393E-01
    5    5   -0.20991980E+00  0.26233266E-16
    6    5   -0.31869806E-01 -0.92389588E-01
    7    5    0.95602279E-01 -0.20288429E-01
    8    5   -0.12918637E-01 -0.39594594E-01
    1    6    0.14523219E-01  0.38408574E-02
    2    6   -0.12428153E-01  0.16636239E-03
    3    6    0.91539806E-01  0.34235441E-01
    4    6   -0.11475663E-01 -0.47731361E-02
    5    6   -0.31869806E-01  0.92389588E-01
    6    6   -0.20992193E+00 -0.30677164E-16
    7    6   -0.11996994E-01  0.96992170E-01
    8    6   -0.12426388E-01 -0.20926033E-03
    1    7    0.56256061E-02 -0.41266901E-01
    2    7    0.16904085E-02  0.12312702E-01
    3    7    0.22738703E-01 -0.95048651E-01
    4    7    0.11156420E-01 -0.40126404E-01
    5    7    0.95602279E-01  0.20288429E-01
    6    7   -0.11996994E-01 -0.96992170E-01
    7    7   -0.20992069E+00 -0.74275847E-16
    8    7   -0.15939855E-02 -0.14934672E-01
    1    8    0.26609008E+00  0.65620795E-01
    2    8    0.97711162E-01 -0.29541507E-02
    3    8   -0.11712498E-01 -0.41566986E-02
    4    8   -0.19539450E+00 -0.77476296E-01
    5    8   -0.12918637E-01  0.39594594E-01
    6    8   -0.12426388E-01  0.20926033E-03
    7    8   -0.15939855E-02  0.14934672E-01
    8    8   -0.20997391E+00  0.33429874E-16

    0   -1    0
    1    1   -0.19236987E+00  0.37289655E-15
    2    1    0.26398596E+00 -0.73632067E-01
    3    1    0.41443302E-01  0.41302242E-02
    4    1   -0.34659259E+00 -0.47325160E-01
    5    1    0.91385242E-03 -0.12395243E-01
    6    1    0.14522655E-01 -0.38404542E-02
    7    1   -0.16777127E-02 -0.12314070E-01
    8    1   -0.33963119E+00  0.83757102E-01
    1    2    0.26398596E+00  0.73632067E-01
    2    2    0.16923786E+00  0.37632784E-15
    3    2    0.39311542E+00  0.15308033E+00
    4    2   -0.19296682E+00 -0.83345678E-01
    5    2   -0.59466429E+00  0.16515304E+01
    6    2   -0.98420339E+00 -0.13243401E-01
    7    2   -0.23889355E+00  0.17390007E+01
    8    2   -0.21009765E+00 -0.63518505E-02
    1    3    0.41443302E-01 -0.41302242E-02
    2    3    0.39311542E+00 -0.15308033E+00
    3    3    0.16907107E+00  0.39299453E-15
    4    3    0.41621797E-01  0.15139102E-02
    5    3    0.70504638E-02  0.27401674E+00
    6    3    0.25674031E+00 -0.96018125E-01
    7    3   -0.48911703E-01 -0.20445178E+00
    8    3    0.16541942E+01 -0.58723170E+00
    1    4   -0.34659259E+00  0.47325160E-01
    2    4   -0.19296682E+00  0.83345678E-01
    3    4    0.41621797E-01 -0.15139102E-02
    4    4   -0.19237218E+00  0.43199252E-15
    5    4    0.93314694E-03  0.14992087E-01
    6    4   -0.11475810E-01  0.47737554E-02
    7    4   -0.33292405E-02 -0.11973829E-01
    8    4    0.25476749E+00 -0.10101759E+00
    1    5    0.91385242E-03  0.12395243E-01
    2    5   -0.59466429E+00 -0.16515304E+01
    3    5    0.70504638E-02 -0.27401674E+00
    4    5    0.93314694E-03 -0.14992087E-01
    5    5   -0.19229021E+00  0.38908726E-15
    6    5    0.11409669E+00  0.33076687E+00
    7    5    0.26813612E+00 -0.56898486E-01
    8    5   -0.54448832E+00 -0.16687511E+01
    1    6    0.14522655E-01  0.38404542E-02
    2    6   -0.98420339E+00  0.13243401E-01
    3    6    0.25674031E+00  0.96018125E-01
    4    6   -0.11475810E-01 -0.47737554E-02
    5    6    0.11409669E+00 -0.33076687E+00
    6    6   -0.19228865E+00  0.33765879E-15
    7    6   -0.33647869E-01  0.27203373E+00
    8    6   -0.98415527E+00 -0.16503453E-01
    1    7   -0.16777127E-02  0.12314070E-01
    2    7   -0.23889355E+00 -0.17390007E+01
    3    7   -0.48911703E-01  0.20445178E+00
    4    7   -0.33292405E-02  0.11973829E-01
    5    7    0.26813612E+00  0.56898486E-01
    6    7   -0.33647869E-01 -0.27203373E+00
    7    7    0.16907154E+00  0.33974293E-15
    8    7   -0.44758599E-01 -0.41949247E+00
    1    8   -0.33963119E+00 -0.83757102E-01
    2    8   -0.21009765E+00  0.63518505E-02
    3    8    0.16541942E+01  0.58723170E+00
    4    8    0.25476749E+00  0.10101759E+00
    5    8   -0.54448832E+00  0.16687511E+01
    6    8   -0.98415527E+00  0.16503453E-01
    7    8   -0.44758599E-01  0.41949247E+00
    8    8    0.16923504E+00  0.37672777E-15

    0   -1    1
    1    1   -0.19237422E+00  0.27014062E-16
    2    1    0.26398544E+00 -0.73630418E-01
    3    1   -0.97954210E+00 -0.97620461E-01
    4    1    0.27154297E+00  0.37079072E-01
    5    1    0.72391093E-01 -0.98172852E+00
    6    1    0.17114110E+01 -0.45262499E+00
    7    1   -0.13296650E+00 -0.97537104E+00
    8    1    0.26609072E+00 -0.65620823E-01
    1    2    0.26398544E+00  0.73630418E-01
    2    2    0.16923504E+00  0.14397681E-16
    3    2    0.24012297E+00  0.93505077E-01
    4    2    0.25159641E+00  0.10866997E+00
    5    2   -0.14126335E-01  0.39231027E-01
    6    2    0.41693280E-01  0.56088070E-03
    7    2   -0.56745775E-02  0.41308130E-01
    8    2    0.27393728E+00  0.82812107E-02
    1    3   -0.97954210E+00  0.97620461E-01
    2    3    0.24012297E+00 -0.93505077E-01
    3    3    0.16906818E+00  0.17387804E-16
    4    3    0.17541667E+01  0.63840205E-01
    5    3   -0.54069368E-02 -0.21015480E+00
    6    3    0.25673997E+00 -0.96017871E-01
    7    3    0.63776901E-01  0.26658607E+00
    8    3    0.39249088E-01 -0.13932864E-01
    1    4    0.27154297E+00 -0.37079072E-01
    2    4    0.25159641E+00 -0.10866997E+00
    3    4    0.17541667E+01 -0.63840205E-01
    4    4    0.16923431E+00  0.17780880E-16
    5    4    0.26181154E-01  0.42105124E+00
    6    4   -0.90877704E+00  0.37809419E+00
    7    4    0.47022848E+00  0.16911752E+01
    8    4    0.25476517E+00 -0.10101801E+00
    1    5    0.72391093E-01  0.98172852E+00
    2    5   -0.14126335E-01 -0.39231027E-01
    3    5   -0.54069368E-02  0.21015480E+00
    4    5    0.26181154E-01 -0.42105124E+00
    5    5    0.16906946E+00 -0.43368781E-17
    6    5   -0.89382461E-01 -0.25912471E+00
    7    5    0.26813912E+00 -0.56899332E-01
    8    5    0.38557890E-02  0.11814531E-01
    1    6    0.17114110E+01  0.45262499E+00
    2    6    0.41693280E-01 -0.56088070E-03
    3    6    0.25673997E+00  0.96017871E-01
    4    6   -0.90877704E+00 -0.37809419E+00
    5    6   -0.89382461E-01  0.25912471E+00
    6    6   -0.19229067E+00  0.34090078E-16
    7    6    0.42950322E-01 -0.34724505E+00
    8    6   -0.12426468E-01 -0.20850019E-03
    1    7   -0.13296650E+00  0.97537104E+00
    2    7   -0.56745775E-02 -0.41308130E-01
    3    7    0.63776901E-01 -0.26658607E+00
    4    7    0.47022848E+00 -0.16911752E+01
    5    7    0.26813912E+00  0.56899332E-01
    6    7    0.42950322E-01  0.34724505E+00
    7    7   -0.19228898E+00 -0.64522771E-16
    8    7   -0.15938459E-02 -0.14935077E-01
    1    8    0.26609072E+00  0.65620823E-01
    2    8    0.27393728E+00 -0.82812107E-02
    3    8    0.39249088E-01  0.13932864E-01
    4    8    0.25476517E+00  0.10101801E+00
    5    8    0.38557890E-02 -0.11814531E-01
    6    8   -0.12426468E-01  0.20850019E-03
    7    8   -0.15938459E-02  0.14935077E-01
    8    8   -0.19236948E+00 -0.26533135E-16

    0    0   -1
    1    1    0.16923504E+00  0.28982245E-15
    2    1   -0.19705558E+01  0.54963258E+00
    3    1    0.17466812E+01  0.17407469E+00
    4    1    0.27154327E+00  0.37079403E-01
    5    1    0.72386701E-01 -0.98163129E+00
    6    1    0.40784704E+00 -0.10786566E+00
    7    1    0.23710239E+00  0.17392451E+01
    8    1   -0.19862701E+01  0.48983815E+00
    1    2   -0.19705558E+01 -0.54963258E+00
    2    2    0.16923485E+00  0.37532683E-15
    3    2    0.39311596E+00  0.15308190E+00
    4    2   -0.18780777E+01 -0.81118046E+00
    5    2   -0.59466795E+00  0.16515410E+01
    6    2    0.17551779E+01  0.23619471E-01
    7    2    0.13395977E+00 -0.97513704E+00
    8    2    0.27393960E+00  0.82821318E-02
    1    3    0.17466812E+01 -0.17407469E+00
    2    3    0.39311596E+00 -0.15308190E+00
    3    3    0.16906995E+00  0.36784116E-15
    4    3   -0.98374377E+00 -0.35800867E-01
    5    3    0.70517369E-02  0.27401703E+00
    6    3   -0.19690539E+00  0.73641063E-01
    7    3    0.63775306E-01  0.26658657E+00
    8    3   -0.92767618E+00  0.32932072E+00
    1    4    0.27154327E+00 -0.37079403E-01
    2    4   -0.18780777E+01  0.81118046E+00
    3    4   -0.98374377E+00  0.35800867E-01
    4    4   -0.19237282E+00  0.40250227E-15
    5    4    0.10986434E+00  0.17668445E+01
    6    4   -0.90887304E+00  0.37813741E+00
    7    4   -0.26370614E+00 -0.94841166E+00
    8    4   -0.19017397E+01  0.75406084E+00
    1    5    0.72386701E-01  0.98163129E+00
    2    5   -0.59466795E+00 -0.16515410E+01
    3    5    0.70517369E-02 -0.27401703E+00
    4    5    0.10986434E+00 -0.17668445E+01
    5    5   -0.19229134E+00  0.34051507E-15
    6    5   -0.89383513E-01 -0.25912629E+00
    7    5   -0.34226933E+00  0.72630409E-01
    8    5    0.30535185E+00  0.93584161E+00
    1    6    0.40784704E+00  0.10786566E+00
    2    6    0.17551779E+01 -0.23619471E-01
    3    6   -0.19690539E+00 -0.73641063E-01
    4    6   -0.90887304E+00 -0.37813741E+00
    5    6   -0.89383513E-01  0.25912629E+00
    6    6    0.16906968E+00  0.36863034E-15
    7    6   -0.33648174E-01  0.27203631E+00
    8    6   -0.98425751E+00 -0.16502995E-01
    1    7    0.23710239E+00 -0.17392451E+01
    2    7    0.13395977E+00  0.97513704E+00
    3    7    0.63775306E-01 -0.26658657E+00
    4    7   -0.26370614E+00  0.94841166E+00
    5    7   -0.34226933E+00 -0.72630409E-01
    6    7   -0.33648174E-01 -0.27203631E+00
    7    7   -0.19229144E+00  0.40567189E-15
    8    7   -0.18781888E+00 -0.17602653E+01
    1    8   -0.19862701E+01 -0.48983815E+00
    2    8    0.27393960E+00 -0.82821318E-02
    3    8   -0.92767618E+00 -0.32932072E+00
    4    8   -0.19017397E+01 -0.75406084E+00
    5    8    0.30535185E+00 -0.93584161E+00
    6    8   -0.98425751E+00  0.16502995E-01
    7    8   -0.18781888E+00  0.17602653E+01
    8    8   -0.19237295E+00  0.37089749E-15

    0    0    0
    1    1    0.60764377E+01  0.13762578E-16
    2    1   -0.20246942E+00  0.56472857E-01
    3    1    0.17466819E+01  0.17407102E+00
    4    1   -0.20269638E+01 -0.27677809E+00
    5    1   -0.12908737E+00  0.17505826E+01
    6    1    0.40784235E+00 -0.10786500E+00
    7    1   -0.13295574E+00 -0.97527298E+00
    8    1    0.26609135E+00 -0.65621447E-01
    1    2   -0.20246942E+00 -0.56472857E-01
    2    2    0.60764340E+01  0.13830354E-16
    3    2    0.39311283E+00  0.15308068E+00
    4    2    0.25159703E+00  0.10866897E+00
    5    2    0.33345339E+00 -0.92608949E+00
    6    2    0.17551729E+01  0.23613494E-01
    7    2   -0.23889199E+00  0.17390015E+01
    8    2   -0.20448451E+01 -0.61817438E-01
    1    3    0.17466819E+01 -0.17407102E+00
    2    3    0.39311283E+00 -0.15308068E+00
    3    3    0.60769947E+01  0.44276139E-16
    4    3    0.17541766E+01  0.63840836E-01
    5    3   -0.52621800E-01 -0.20451858E+01
    6    3   -0.19162338E+01  0.71665385E+00
    7    3   -0.47601019E+00 -0.19897213E+01
    8    3    0.16541905E+01 -0.58723112E+00
    1    4   -0.20269638E+01  0.27677809E+00
    2    4    0.25159703E+00 -0.10866897E+00
    3    4    0.17541766E+01 -0.63840836E-01
    4    4    0.60764385E+01  0.50740658E-16
    5    4    0.26178790E-01  0.42105705E+00
    6    4    0.16206673E+01 -0.67427377E+00
    7    4   -0.26367935E+00 -0.94832158E+00
    8    4   -0.32517703E+00  0.12893516E+00
    1    5   -0.12908737E+00 -0.17505826E+01
    2    5    0.33345339E+00  0.92608949E+00
    3    5   -0.52621800E-01  0.20451858E+01
    4    5    0.26178790E-01 -0.42105705E+00
    5    5    0.60769964E+01 -0.47704896E-16
    6    5    0.66713002E+00  0.19340306E+01
    7    5   -0.20013042E+01  0.42467626E+00
    8    5    0.30531741E+00  0.93574014E+00
    1    6    0.40784235E+00  0.10786500E+00
    2    6    0.17551729E+01 -0.23613494E-01
    3    6   -0.19162338E+01 -0.71665385E+00
    4    6    0.16206673E+01  0.67427377E+00
    5    6    0.66713002E+00 -0.19340306E+01
    6    6    0.60769942E+01 -0.47857130E-16
    7    6    0.25113757E+00 -0.20303920E+01
    8    6    0.17550871E+01  0.29433060E-01
    1    7   -0.13295574E+00  0.97527298E+00
    2    7   -0.23889199E+00 -0.17390015E+01
    3    7   -0.47601019E+00  0.19897213E+01
    4    7   -0.26367935E+00  0.94832158E+00
    5    7   -0.20013042E+01 -0.42467626E+00
    6    7    0.25113757E+00  0.20303920E+01
    7    7    0.60769895E+01  0.34365745E-16
    8    7   -0.44758320E-01 -0.41948583E+00
    1    8    0.26609135E+00  0.65621447E-01
    2    8   -0.20448451E+01  0.61817438E-01
    3    8    0.16541905E+01  0.58723112E+00
    4    8   -0.32517703E+00 -0.12893516E+00
    5    8    0.30531741E+00 -0.93574014E+00
    6    8    0.17550871E+01 -0.29433060E-01
    7    8   -0.44758320E-01  0.41948583E+00
    8    8    0.60764331E+01 -0.63426224E-17

    0    0    1
    1    1    0.16923504E+00 -0.43360124E-15
    2    1   -0.19705558E+01  0.54963258E+00
    3    1    0.17466812E+01  0.17407469E+00
    4    1    0.27154327E+00  0.37079403E-01
    5    1    0.72386701E-01 -0.98163129E+00
    6    1    0.40784704E+00 -0.10786566E+00
    7    1    0.23710239E+00  0.17392451E+01
    8    1   -0.19862701E+01  0.48983815E+00
    1    2   -0.19705558E+01 -0.54963258E+00
    2    2    0.16923485E+00 -0.34809642E-15
    3    2    0.39311596E+00  0.15308190E+00
    4    2   -0.18780777E+01 -0.81118046E+00
    5    2   -0.59466795E+00  0.16515410E+01
    6    2    0.17551779E+01  0.23619471E-01
    7    2    0.13395977E+00 -0.97513704E+00
    8    2    0.27393960E+00  0.82821318E-02
    1    3    0.17466812E+01 -0.17407469E+00
    2    3    0.39311596E+00 -0.15308190E+00
    3    3    0.16906995E+00 -0.35567095E-15
    4    3   -0.98374377E+00 -0.35800867E-01
    5    3    0.70517369E-02  0.27401703E+00
    6    3   -0.19690539E+00  0.73641063E-01
    7    3    0.63775306E-01  0.26658657E+00
    8    3   -0.92767618E+00  0.32932072E+00
    1    4    0.27154327E+00 -0.37079403E-01
    2    4   -0.18780777E+01  0.81118046E+00
    3    4   -0.98374377E+00  0.35800867E-01
    4    4   -0.19237282E+00 -0.36520571E-15
    5    4    0.10986434E+00  0.17668445E+01
    6    4   -0.90887304E+00  0.37813741E+00
    7    4   -0.26370614E+00 -0.94841166E+00
    8    4   -0.19017397E+01  0.75406084E+00
    1    5    0.72386701E-01  0.98163129E+00
    2    5   -0.59466795E+00 -0.16515410E+01
    3    5    0.70517369E-02 -0.27401703E+00
    4    5    0.10986434E+00 -0.17668445E+01
    5    5   -0.19229134E+00 -0.42725124E-15
    6    5   -0.89383513E-01 -0.25912629E+00
    7    5   -0.34226933E+00  0.72630409E-01
    8    5    0.30535185E+00  0.93584161E+00
    1    6    0.40784704E+00  0.10786566E+00
    2    6    0.17551779E+01 -0.23619471E-01
    3    6   -0.19690539E+00 -0.73641063E-01
    4    6   -0.90887304E+00 -0.37813741E+00
    5    6   -0.89383513E-01  0.25912629E+00
    6    6    0.16906968E+00 -0.35488174E-15
    7    6   -0.33648174E-01  0.27203631E+00
    8    6   -0.98425751E+00 -0.16502995E-01
    1    7    0.23710239E+00 -0.17392451E+01
    2    7    0.13395977E+00  0.97513704E+00
    3    7    0.63775306E-01 -0.26658657E+00
    4    7   -0.26370614E+00  0.94841166E+00
    5    7   -0.34226933E+00 -0.72630409E-01
    6    7   -0.33648174E-01 -0.27203631E+00
    7    7   -0.19229144E+00 -0.36209359E-15
    8    7   -0.18781888E+00 -0.17602653E+01
    1    8   -0.19862701E+01 -0.48983815E+00
    2    8    0.27393960E+00 -0.82821318E-02
    3    8   -0.92767618E+00 -0.32932072E+00
    4    8   -0.19017397E+01 -0.75406084E+00
    5    8    0.30535185E+00 -0.93584161E+00
    6    8   -0.98425751E+00  0.16502995E-01
    7    8   -0.18781888E+00  0.17602653E+01
    8    8   -0.19237295E+00 -0.39680984E-15

    0    1   -1
    1    1   -0.19237422E+00 -0.17269768E-16
    2    1    0.26398544E+00 -0.73630418E-01
    3    1   -0.97954210E+00 -0.97620461E-01
    4    1    0.27154297E+00  0.37079072E-01
    5    1    0.72391093E-01 -0.98172852E+00
    6    1    0.17114110E+01 -0.45262499E+00
    7    1   -0.13296650E+00 -0.97537104E+00
    8    1    0.26609072E+00 -0.65620823E-01
    1    2    0.26398544E+00  0.73630418E-01
    2    2    0.16923504E+00  0.14398051E-16
    3    2    0.24012297E+00  0.93505077E-01
    4    2    0.25159641E+00  0.10866997E+00
    5    2   -0.14126335E-01  0.39231027E-01
    6    2    0.41693280E-01  0.56088070E-03
    7    2   -0.56745775E-02  0.41308130E-01
    8    2    0.27393728E+00  0.82812107E-02
    1    3   -0.97954210E+00  0.97620461E-01
    2    3    0.24012297E+00 -0.93505077E-01
    3    3    0.16906818E+00  0.17387941E-16
    4    3    0.17541667E+01  0.63840205E-01
    5    3   -0.54069368E-02 -0.21015480E+00
    6    3    0.25673997E+00 -0.96017871E-01
    7    3    0.63776901E-01  0.26658607E+00
    8    3    0.39249088E-01 -0.13932864E-01
    1    4    0.27154297E+00 -0.37079072E-01
    2    4    0.25159641E+00 -0.10866997E+00
    3    4    0.17541667E+01 -0.63840205E-01
    4    4    0.16923431E+00  0.17780958E-16
    5    4    0.26181154E-01  0.42105124E+00
    6    4   -0.90877704E+00  0.37809419E+00
    7    4    0.47022848E+00  0.16911752E+01
    8    4    0.25476517E+00 -0.10101801E+00
    1    5    0.72391093E-01  0.98172852E+00
    2    5   -0.14126335E-01 -0.39231027E-01
    3    5   -0.54069368E-02  0.21015480E+00
    4    5    0.26181154E-01 -0.42105124E+00
    5    5    0.16906946E+00 -0.43367392E-17
    6    5   -0.89382461E-01 -0.25912471E+00
    7    5    0.26813912E+00 -0.56899332E-01
    8    5    0.38557890E-02  0.11814531E-01
    1    6    0.17114110E+01  0.45262499E+00
    2    6    0.41693280E-01 -0.56088070E-03
    3    6    0.25673997E+00  0.96017871E-01
    4    6   -0.90877704E+00 -0.37809419E+00
    5    6   -0.89382461E-01  0.25912471E+00
    6    6   -0.19229067E+00 -0.10163555E-16
    7    6    0.42950322E-01 -0.34724505E+00
    8    6   -0.12426468E-01 -0.20850019E-03
    1    7   -0.13296650E+00  0.97537104E+00
    2    7   -0.56745775E-02 -0.41308130E-01
    3    7    0.63776901E-01 -0.26658607E+00
    4    7    0.47022848E+00 -0.16911752E+01
    5    7    0.26813912E+00  0.56899332E-01
    6    7    0.42950322E-01  0.34724505E+00
    7    7   -0.19228898E+00 -0.20268569E-16
    8    7   -0.15938459E-02 -0.14935077E-01
    1    8    0.26609072E+00  0.65620823E-01
    2    8    0.27393728E+00 -0.82812107E-02
    3    8    0.39249088E-01  0.13932864E-01
    4    8    0.25476517E+00  0.10101801E+00
    5    8    0.38557890E-02 -0.11814531E-01
    6    8   -0.12426468E-01  0.20850019E-03
    7    8   -0.15938459E-02  0.14935077E-01
    8    8   -0.19236948E+00  0.17751071E-16

    0    1    0
    1    1   -0.19236987E+00 -0.39481096E-15
    2    1    0.26398596E+00 -0.73632067E-01
    3    1    0.41443302E-01  0.41302242E-02
    4    1   -0.34659259E+00 -0.47325160E-01
    5    1    0.91385242E-03 -0.12395243E-01
    6    1    0.14522655E-01 -0.38404542E-02
    7    1   -0.16777127E-02 -0.12314070E-01
    8    1   -0.33963119E+00  0.83757102E-01
    1    2    0.26398596E+00  0.73632067E-01
    2    2    0.16923786E+00 -0.34709504E-15
    3    2    0.39311542E+00  0.15308033E+00
    4    2   -0.19296682E+00 -0.83345678E-01
    5    2   -0.59466429E+00  0.16515304E+01
    6    2   -0.98420339E+00 -0.13243401E-01
    7    2   -0.23889355E+00  0.17390007E+01
    8    2   -0.21009765E+00 -0.63518505E-02
    1    3    0.41443302E-01 -0.41302242E-02
    2    3    0.39311542E+00 -0.15308033E+00
    3    3    0.16907107E+00 -0.33051745E-15
    4    3    0.41621797E-01  0.15139102E-02
    5    3    0.70504638E-02  0.27401674E+00
    6    3    0.25674031E+00 -0.96018125E-01
    7    3   -0.48911703E-01 -0.20445178E+00
    8    3    0.16541942E+01 -0.58723170E+00
    1    4   -0.34659259E+00  0.47325160E-01
    2    4   -0.19296682E+00  0.83345678E-01
    3    4    0.41621797E-01 -0.15139102E-02
    4    4   -0.19237218E+00 -0.33571538E-15
    5    4    0.93314694E-03  0.14992087E-01
    6    4   -0.11475810E-01  0.47737554E-02
    7    4   -0.33292405E-02 -0.11973829E-01
    8    4    0.25476749E+00 -0.10101759E+00
    1    5    0.91385242E-03  0.12395243E-01
    2    5   -0.59466429E+00 -0.16515304E+01
    3    5    0.70504638E-02 -0.27401674E+00
    4    5    0.93314694E-03 -0.14992087E-01
    5    5   -0.19229021E+00 -0.37867892E-15
    6    5    0.11409669E+00  0.33076687E+00
    7    5    0.26813612E+00 -0.56898486E-01
    8    5   -0.54448832E+00 -0.16687511E+01
    1    6    0.14522655E-01  0.38404542E-02
    2    6   -0.98420339E+00  0.13243401E-01
    3    6    0.25674031E+00  0.96018125E-01
    4    6   -0.11475810E-01 -0.47737554E-02
    5    6    0.11409669E+00 -0.33076687E+00
    6    6   -0.19228865E+00 -0.43010692E-15
    7    6   -0.33647869E-01  0.27203373E+00
    8    6   -0.98415527E+00 -0.16503453E-01
    1    7   -0.16777127E-02  0.12314070E-01
    2    7   -0.23889355E+00 -0.17390007E+01
    3    7   -0.48911703E-01  0.20445178E+00
    4    7   -0.33292405E-02  0.11973829E-01
    5    7    0.26813612E+00  0.56898486E-01
    6    7   -0.33647869E-01 -0.27203373E+00
    7    7    0.16907154E+00 -0.38376836E-15
    8    7   -0.44758599E-01 -0.41949247E+00
    1    8   -0.33963119E+00 -0.83757102E-01
    2    8   -0.21009765E+00  0.63518505E-02
    3    8    0.16541942E+01  0.58723170E+00
    4    8    0.25476749E+00  0.10101759E+00
    5    8   -0.54448832E+00  0.16687511E+01
    6    8   -0.98415527E+00  0.16503453E-01
    7    8   -0.44758599E-01  0.41949247E+00
    8    8    0.16923504E+00 -0.34669535E-15

    1   -1   -1
    1    1   -0.20997497E+00  0.76014027E-16
    2    1   -0.33694759E+00  0.93981963E-01
    3    1   -0.12367508E-01 -0.12328823E-02
    4    1    0.96858450E-01  0.13224124E-01
    5    1    0.91454038E-03 -0.12394739E-01
    6    1    0.14523219E-01 -0.38408574E-02
    7    1    0.56256061E-02  0.41266901E-01
    8    1    0.26609008E+00 -0.65620795E-01
    1    2   -0.33694759E+00 -0.93981963E-01
    2    2   -0.20997461E+00 -0.78470045E-17
    3    2    0.13997338E-01  0.54515030E-02
    4    2    0.25159767E+00  0.10867046E+00
    5    2   -0.14110348E-01  0.39185833E-01
    6    2   -0.12428153E-01 -0.16636239E-03
    7    2    0.16904085E-02 -0.12312702E-01
    8    2    0.97711162E-01  0.29541507E-02
    1    3   -0.12367508E-01  0.12328823E-02
    2    3    0.13997338E-01 -0.54515030E-02
    3    3   -0.20992180E+00 -0.48761939E-16
    4    3   -0.12419519E-01 -0.45232667E-03
    5    3    0.25121131E-02  0.97699706E-01
    6    3    0.91539806E-01 -0.34235441E-01
    7    3    0.22738703E-01  0.95048651E-01
    8    3   -0.11712498E-01  0.41566986E-02
    1    4    0.96858450E-01 -0.13224124E-01
    2    4    0.25159767E+00 -0.10867046E+00
    3    4   -0.12419519E-01  0.45232667E-03
    4    4   -0.20997353E+00  0.80899384E-16
    5    4    0.93237857E-03  0.14991393E-01
    6    4   -0.11475663E-01  0.47731361E-02
    7    4    0.11156420E-01  0.40126404E-01
    8    4   -0.19539450E+00  0.77476296E-01
    1    5    0.91454038E-03  0.12394739E-01
    2    5   -0.14110348E-01 -0.39185833E-01
    3    5    0.25121131E-02 -0.97699706E-01
    4    5    0.93237857E-03 -0.14991393E-01
    5    5   -0.20991980E+00  0.72645972E-16
    6    5   -0.31869806E-01 -0.92389588E-01
    7    5    0.95602279E-01 -0.20288429E-01
    8    5   -0.12918637E-01 -0.39594594E-01
    1    6    0.14523219E-01  0.38408574E-02
    2    6   -0.12428153E-01  0.16636239E-03
    3    6    0.91539806E-01  0.34235441E-01
    4    6   -0.11475663E-01 -0.47731361E-02
    5    6   -0.31869806E-01  0.92389588E-01
    6    6   -0.20992193E+00  0.15735966E-16
    7    6   -0.11996994E-01  0.96992170E-01
    8    6   -0.12426388E-01 -0.20926033E-03
    1    7    0.56256061E-02 -0.41266901E-01
    2    7    0.16904085E-02  0.12312702E-01
    3    7    0.22738703E-01 -0.95048651E-01
    4    7    0.11156420E-01 -0.40126404E-01
    5    7    0.95602279E-01  0.20288429E-01
    6    7   -0.11996994E-01 -0.96992170E-01
    7    7   -0.20992069E+00 -0.27862927E-16
    8    7   -0.15939855E-02 -0.14934672E-01
    1    8    0.26609008E+00  0.65620795E-01
    2    8    0.97711162E-01 -0.29541507E-02
    3    8   -0.11712498E-01 -0.41566986E-02
    4    8   -0.19539450E+00 -0.77476296E-01
    5    8   -0.12918637E-01  0.39594594E-01
    6    8   -0.12426388E-01  0.20926033E-03
    7    8   -0.15939855E-02  0.14934672E-01
    8    8   -0.20997391E+00  0.79869173E-16

    1   -1    0
    1    1   -0.19236985E+00  0.62142161E-16
    2    1    0.94163131E-01 -0.26264016E-01
    3    1   -0.12368227E-01 -0.12319352E-02
    4    1    0.27154140E+00  0.37077836E-01
    5    1   -0.30625976E-02  0.41536109E-01
    6    1    0.14522588E-01 -0.38400872E-02
    7    1   -0.16802075E-02 -0.12313824E-01
    8    1    0.94912368E-01 -0.23406142E-01
    1    2    0.94163131E-01  0.26264016E-01
    2    2   -0.19237021E+00 -0.90284564E-17
    3    2    0.13997908E-01  0.54506712E-02
    4    2    0.89744050E-01  0.38760929E-01
    5    2    0.42113290E-02 -0.11691914E-01
    6    2   -0.12427785E-01 -0.16662451E-03
    7    2   -0.56673323E-02  0.41260375E-01
    8    2    0.27393642E+00  0.82815407E-02
    1    3   -0.12368227E-01  0.12319352E-02
    2    3    0.13997908E-01 -0.54506712E-02
    3    3   -0.19228850E+00 -0.88032913E-16
    4    3    0.41669145E-01  0.15171859E-02
    5    3    0.70495818E-02  0.27401735E+00
    6    3   -0.32772287E+00  0.12256538E+00
    7    3    0.63776446E-01  0.26658400E+00
    8    3    0.39293188E-01 -0.13948862E-01
    1    4    0.27154140E+00 -0.37077836E-01
    2    4    0.89744050E-01 -0.38760929E-01
    3    4    0.41669145E-01 -0.15171859E-02
    4    4    0.16923684E+00 -0.64618394E-16
    5    4    0.15992051E-01  0.25719186E+00
    6    4    0.38498069E-01 -0.16016582E-01
    7    4    0.11170192E-01  0.40172305E-01
    8    4    0.90873779E-01 -0.36031761E-01
    1    5   -0.30625976E-02 -0.41536109E-01
    2    5    0.42113290E-02  0.11691914E-01
    3    5    0.70495818E-02 -0.27401735E+00
    4    5    0.15992051E-01 -0.25719186E+00
    5    5    0.16907067E+00  0.32959820E-16
    6    5   -0.89382597E-01 -0.25912476E+00
    7    5   -0.20564209E+00  0.43638215E-01
    8    5   -0.12934323E-01 -0.39639219E-01
    1    6    0.14522588E-01  0.38400872E-02
    2    6   -0.12427785E-01  0.16662451E-03
    3    6   -0.32772287E+00 -0.12256538E+00
    4    6    0.38498069E-01  0.16016582E-01
    5    6   -0.89382597E-01  0.25912476E+00
    6    6   -0.19228917E+00  0.68303529E-16
    7    6   -0.33647478E-01  0.27203406E+00
    8    6    0.41690643E-01  0.69976772E-03
    1    7   -0.16802075E-02  0.12313824E-01
    2    7   -0.56673323E-02 -0.41260375E-01
    3    7    0.63776446E-01 -0.26658400E+00
    4    7    0.11170192E-01 -0.40172305E-01
    5    7   -0.20564209E+00 -0.43638215E-01
    6    7   -0.33647478E-01 -0.27203406E+00
    7    7    0.16906963E+00 -0.57574477E-16
    8    7   -0.27339535E-01 -0.25623100E+00
    1    8    0.94912368E-01  0.23406142E-01
    2    8    0.27393642E+00 -0.82815407E-02
    3    8    0.39293188E-01  0.13948862E-01
    4    8    0.90873779E-01  0.36031761E-01
    5    8   -0.12934323E-01  0.39639219E-01
    6    8    0.41690643E-01 -0.69976772E-03
    7    8   -0.27339535E-01  0.25623100E+00
    8    8    0.16923448E+00  0.51337133E-16

    1   -1    1
    1    1   -0.20997497E+00  0.73858021E-16
    2    1   -0.33694759E+00  0.93981963E-01
    3    1   -0.12367508E-01 -0.12328823E-02
    4    1    0.96858450E-01  0.13224124E-01
    5    1    0.91454038E-03 -0.12394739E-01
    6    1    0.14523219E-01 -0.38408574E-02
    7    1    0.56256061E-02  0.41266901E-01
    8    1    0.26609008E+00 -0.65620795E-01
    1    2   -0.33694759E+00 -0.93981963E-01
    2    2   -0.20997461E+00 -0.10002921E-16
    3    2    0.13997338E-01  0.54515030E-02
    4    2    0.25159767E+00  0.10867046E+00
    5    2   -0.14110348E-01  0.39185833E-01
    6    2   -0.12428153E-01 -0.16636239E-03
    7    2    0.16904085E-02 -0.12312702E-01
    8    2    0.97711162E-01  0.29541507E-02
    1    3   -0.12367508E-01  0.12328823E-02
    2    3    0.13997338E-01 -0.54515030E-02
    3    3   -0.20992180E+00 -0.50921396E-16
    4    3   -0.12419519E-01 -0.45232667E-03
    5    3    0.25121131E-02  0.97699706E-01
    6    3    0.91539806E-01 -0.34235441E-01
    7    3    0.22738703E-01  0.95048651E-01
    8    3   -0.11712498E-01  0.41566986E-02
    1    4    0.96858450E-01 -0.13224124E-01
    2    4    0.25159767E+00 -0.10867046E+00
    3    4   -0.12419519E-01  0.45232667E-03
    4    4   -0.20997353E+00  0.34459508E-16
    5    4    0.93237857E-03  0.14991393E-01
    6    4   -0.11475663E-01  0.47731361E-02
    7    4    0.11156420E-01  0.40126404E-01
    8    4   -0.19539450E+00  0.77476296E-01
    1    5    0.91454038E-03  0.12394739E-01
    2    5   -0.14110348E-01 -0.39185833E-01
    3    5    0.25121131E-02 -0.97699706E-01
    4    5    0.93237857E-03 -0.14991393E-01
    5    5   -0.20991980E+00  0.26233026E-16
    6    5   -0.31869806E-01 -0.92389588E-01
    7    5    0.95602279E-01 -0.20288429E-01
    8    5   -0.12918637E-01 -0.39594594E-01
    1    6    0.14523219E-01  0.38408574E-02
    2    6   -0.12428153E-01  0.16636239E-03
    3    6    0.91539806E-01  0.34235441E-01
    4    6   -0.11475663E-01 -0.47731361E-02
    5    6   -0.31869806E-01  0.92389588E-01
    6    6   -0.20992193E+00  0.13576576E-16
    7    6   -0.11996994E-01  0.96992170E-01
    8    6   -0.12426388E-01 -0.20926033E-03
    1    7    0.56256061E-02 -0.41266901E-01
    2    7    0.16904085E-02  0.12312702E-01
    3    7    0.22738703E-01 -0.95048651E-01
    4    7    0.11156420E-01 -0.40126404E-01
    5    7    0.95602279E-01  0.20288429E-01
    6    7   -0.11996994E-01 -0.96992170E-01
    7    7   -0.20992069E+00 -0.74275854E-16
    8    7   -0.15939855E-02 -0.14934672E-01
    1    8    0.26609008E+00  0.65620795E-01
    2    8    0.97711162E-01 -0.29541507E-02
    3    8   -0.11712498E-01 -0.41566986E-02
    4    8   -0.19539450E+00 -0.77476296E-01
    5    8   -0.12918637E-01  0.39594594E-01
    6    8   -0.12426388E-01  0.20926033E-03
    7    8   -0.15939855E-02  0.14934672E-01
    8    8   -0.20997391E+00  0.33429539E-16

    1    0   -1
    1    1    0.16923482E+00 -0.22232932E-16
    2    1    0.26398715E+00 -0.73632838E-01
    3    1   -0.97944354E+00 -0.97610196E-01
    4    1   -0.20826527E+00 -0.28437435E-01
    5    1   -0.12908885E+00  0.17505797E+01
    6    1    0.40784613E+00 -0.10786620E+00
    7    1    0.23710528E+00  0.17392456E+01
    8    1   -0.20408049E+00  0.50328122E-01
    1    2    0.26398715E+00  0.73632838E-01
    2    2   -0.19237232E+00 -0.78610599E-17
    3    2    0.13998177E-01  0.54502541E-02
    4    2   -0.32113421E+00 -0.13870305E+00
    5    2    0.42108083E-02 -0.11694498E-01
    6    2    0.41645038E-01  0.56029683E-03
    7    2    0.16914536E-02 -0.12311871E-01
    8    2   -0.34964604E+00 -0.10570007E-01
    1    3   -0.97944354E+00  0.97610196E-01
    2    3    0.13998177E-01 -0.54502541E-02
    3    3   -0.19228961E+00  0.25591490E-16
    4    3   -0.98364311E+00 -0.35800523E-01
    5    3    0.70510311E-02  0.27401805E+00
    6    3    0.25674062E+00 -0.96018852E-01
    7    3   -0.81409064E-01 -0.34028835E+00
    8    3   -0.11711593E-01  0.41570381E-02
    1    4   -0.20826527E+00  0.28437435E-01
    2    4   -0.32113421E+00  0.13870305E+00
    3    4   -0.98364311E+00  0.35800523E-01
    4    4    0.16923258E+00 -0.45536403E-16
    5    4    0.26180752E-01  0.42105527E+00
    6    4    0.16206602E+01 -0.67427322E+00
    7    4    0.47023295E+00  0.16911774E+01
    8    4    0.25476430E+00 -0.10101655E+00
    1    5   -0.12908885E+00 -0.17505797E+01
    2    5    0.42108083E-02  0.11694498E-01
    3    5    0.70510311E-02 -0.27401805E+00
    4    5    0.26180752E-01 -0.42105527E+00
    5    5    0.16906750E+00 -0.86734735E-17
    6    5    0.68551646E-01  0.19873484E+00
    7    5    0.26813810E+00 -0.56899271E-01
    8    5    0.38556685E-02  0.11814801E-01
    1    6    0.40784613E+00  0.10786620E+00
    2    6    0.41645038E-01 -0.56029683E-03
    3    6    0.25674062E+00  0.96018852E-01
    4    6    0.16206602E+01  0.67427322E+00
    5    6    0.68551646E-01 -0.19873484E+00
    6    6    0.16906854E+00 -0.93068969E-17
    7    6   -0.33646996E-01  0.27203548E+00
    8    6    0.41641983E-01  0.69828567E-03
    1    7    0.23710528E+00 -0.17392456E+01
    2    7    0.16914536E-02  0.12311871E-01
    3    7   -0.81409064E-01  0.34028835E+00
    4    7    0.47023295E+00 -0.16911774E+01
    5    7    0.26813810E+00  0.56899271E-01
    6    7   -0.33646996E-01 -0.27203548E+00
    7    7   -0.19228904E+00  0.30905698E-16
    8    7   -0.15932584E-02 -0.14935659E-01
    1    8   -0.20408049E+00 -0.50328122E-01
    2    8   -0.34964604E+00  0.10570007E-01
    3    8   -0.11711593E-01 -0.41570381E-02
    4    8    0.25476430E+00  0.10101655E+00
    5    8    0.38556685E-02 -0.11814801E-01
    6    8    0.41641983E-01 -0.69828567E-03
    7    8   -0.15932584E-02  0.14935659E-01
    8    8   -0.19237222E+00 -0.10221198E-16

    1    0    0
    1    1    0.16923464E+00 -0.30219593E-15
    2    1    0.26398617E+00 -0.73631229E-01
    3    1    0.41490950E-01  0.41344330E-02
    4    1    0.27154288E+00  0.37080012E-01
    5    1   -0.30676663E-02  0.41584359E-01
    6    1    0.24912183E+00 -0.65886327E-01
    7    1    0.56331524E-02  0.41314260E-01
    8    1    0.26609053E+00 -0.65621552E-01
    1    2    0.26398617E+00  0.73631229E-01
    2    2   -0.19237204E+00 -0.36990303E-15
    3    2    0.16495973E+01  0.64236247E+00
    4    2    0.25159726E+00  0.10867008E+00
    5    2    0.33349103E+00 -0.92618585E+00
    6    2   -0.98430690E+00 -0.13245067E-01
    7    2    0.13397096E+00 -0.97523311E+00
    8    2    0.27393671E+00  0.82810695E-02
    1    3    0.41490950E-01 -0.41344330E-02
    2    3    0.16495973E+01 -0.64236247E+00
    3    3   -0.19229015E+00 -0.40552639E-15
    4    3   -0.12421557E-01 -0.45144382E-03
    5    3   -0.89992003E-02 -0.34977622E+00
    6    3    0.25674007E+00 -0.96018477E-01
    7    3    0.63777636E-01  0.26658511E+00
    8    3   -0.92757683E+00  0.32928870E+00
    1    4    0.27154288E+00 -0.37080012E-01
    2    4    0.25159726E+00 -0.10867008E+00
    3    4   -0.12421557E-01  0.45144382E-03
    4    4   -0.19237133E+00 -0.32790906E-15
    5    4    0.93328369E-03  0.14992406E-01
    6    4    0.38454438E-01 -0.15998911E-01
    7    4   -0.33294418E-02 -0.11974292E-01
    8    4    0.25476820E+00 -0.10101811E+00
    1    5   -0.30676663E-02 -0.41584359E-01
    2    5    0.33349103E+00  0.92618585E+00
    3    5   -0.89992003E-02  0.34977622E+00
    4    5    0.93328369E-03 -0.14992406E-01
    5    5   -0.19228899E+00 -0.39515872E-15
    6    5   -0.89383030E-01 -0.25912455E+00
    7    5    0.26813650E+00 -0.56897440E-01
    8    5   -0.54449121E+00 -0.16687491E+01
    1    6    0.24912183E+00  0.65886327E-01
    2    6   -0.98430690E+00  0.13245067E-01
    3    6    0.25674007E+00  0.96018477E-01
    4    6    0.38454438E-01  0.15998911E-01
    5    6   -0.89383030E-01  0.25912455E+00
    6    6    0.16907103E+00 -0.31395981E-15
    7    6    0.25805693E-01 -0.20863290E+00
    8    6    0.17550869E+01  0.29428815E-01
    1    7    0.56331524E-02 -0.41314260E-01
    2    7    0.13397096E+00  0.97523311E+00
    3    7    0.63777636E-01 -0.26658511E+00
    4    7   -0.33294418E-02  0.11974292E-01
    5    7    0.26813650E+00  0.56897440E-01
    6    7    0.25805693E-01  0.20863290E+00
    7    7    0.16907106E+00 -0.37943153E-15
    8    7   -0.44759320E-01 -0.41948911E+00
    1    8    0.26609053E+00  0.65621552E-01
    2    8    0.27393671E+00 -0.82810695E-02
    3    8   -0.92757683E+00 -0.32928870E+00
    4    8    0.25476820E+00  0.10101811E+00
    5    8   -0.54449121E+00  0.16687491E+01
    6    8    0.17550869E+01 -0.29428815E-01
    7    8   -0.44759320E-01  0.41948911E+00
    8    8    0.16923701E+00 -0.41434947E-15

    1    1   -1
    1    1   -0.20997497E+00  0.29574221E-16
    2    1   -0.33694759E+00  0.93981963E-01
    3    1   -0.12367508E-01 -0.12328823E-02
    4    1    0.96858450E-01  0.13224124E-01
    5    1    0.91454038E-03 -0.12394739E-01
    6    1    0.14523219E-01 -0.38408574E-02
    7    1    0.56256061E-02  0.41266901E-01
    8    1    0.26609008E+00 -0.65620795E-01
    1    2   -0.33694759E+00 -0.93981963E-01
    2    2   -0.20997461E+00 -0.10002663E-16
    3    2    0.13997338E-01  0.54515030E-02
    4    2    0.25159767E+00  0.10867046E+00
    5    2   -0.14110348E-01  0.39185833E-01
    6    2   -0.12428153E-01 -0.16636239E-03
    7    2    0.16904085E-02 -0.12312702E-01
    8    2    0.97711162E-01  0.29541507E-02
    1    3   -0.12367508E-01  0.12328823E-02
    2    3    0.13997338E-01 -0.54515030E-02
    3    3   -0.20992180E+00 -0.50921260E-16
    4    3   -0.12419519E-01 -0.45232667E-03
    5    3    0.25121131E-02  0.97699706E-01
    6    3    0.91539806E-01 -0.34235441E-01
    7    3    0.22738703E-01  0.95048651E-01
    8    3   -0.11712498E-01  0.41566986E-02
    1    4    0.96858450E-01 -0.13224124E-01
    2    4    0.25159767E+00 -0.10867046E+00
    3    4   -0.12419519E-01  0.45232667E-03
    4    4   -0.20997353E+00  0.34460029E-16
    5    4    0.93237857E-03  0.14991393E-01
    6    4   -0.11475663E-01  0.47731361E-02
    7    4    0.11156420E-01  0.40126404E-01
    8    4   -0.19539450E+00  0.77476296E-01
    1    5    0.91454038E-03  0.12394739E-01
    2    5   -0.14110348E-01 -0.39185833E-01
    3    5    0.25121131E-02 -0.97699706E-01
    4    5    0.93237857E-03 -0.14991393E-01
    5    5   -0.20991980E+00  0.26233414E-16
    6    5   -0.31869806E-01 -0.92389588E-01
    7    5    0.95602279E-01 -0.20288429E-01
    8    5   -0.12918637E-01 -0.39594594E-01
    1    6    0.14523219E-01  0.38408574E-02
    2    6   -0.12428153E-01  0.16636239E-03
    3    6    0.91539806E-01  0.34235441E-01
    4    6   -0.11475663E-01 -0.47731361E-02
    5    6   -0.31869806E-01  0.92389588E-01
    6    6   -0.20992193E+00 -0.30676980E-16
    7    6   -0.11996994E-01  0.96992170E-01
    8    6   -0.12426388E-01 -0.20926033E-03
    1    7    0.56256061E-02 -0.41266901E-01
    2    7    0.16904085E-02  0.12312702E-01
    3    7    0.22738703E-01 -0.95048651E-01
    4    7    0.11156420E-01 -0.40126404E-01
    5    7    0.95602279E-01  0.20288429E-01
    6    7   -0.11996994E-01 -0.96992170E-01
    7    7   -0.20992069E+00 -0.30022180E-16
    8    7   -0.15939855E-02 -0.14934672E-01
    1    8    0.26609008E+00  0.65620795E-01
    2    8    0.97711162E-01 -0.29541507E-02
    3    8   -0.11712498E-01 -0.41566986E-02
    4    8   -0.19539450E+00 -0.77476296E-01
    5    8   -0.12918637E-01  0.39594594E-01
    6    8   -0.12426388E-01  0.20926033E-03
    7    8   -0.15939855E-02  0.14934672E-01
    8    8   -0.20997391E+00  0.77713588E-16

   -1   -1    1
    1    1   -0.28449465E-15 -0.23132730E-19 -0.59674488E-15  0.17691839E-17  0.26367797E-15 -0.27178175E-17
    2    1   -0.15215074E-01  0.42438513E-02 -0.54238616E-01  0.15128328E-01  0.19683966E-07  0.31274840E-07
    3    1    0.59787682E-02  0.59582042E-03 -0.10191880E-01 -0.10156376E-02 -0.11968069E-01 -0.11927223E-02
    4    1    0.11719388E-07  0.48644268E-08 -0.52640425E-02 -0.71878839E-03 -0.52639175E-02 -0.71884512E-03
    5    1    0.88453304E-03 -0.11994745E-01  0.75322752E-03 -0.10214546E-01 -0.44175467E-03  0.59921956E-02
    6    1   -0.36393919E-02  0.96252758E-03  0.20082027E-02 -0.53115198E-03 -0.36393799E-02  0.96243038E-03
    7    1    0.95126439E-03  0.69788010E-02  0.76710580E-03  0.56271652E-02  0.95130808E-03  0.69787991E-02
    8    1    0.21128196E-01 -0.52105002E-02  0.14195619E-01 -0.35008306E-02 -0.13496663E-02  0.33278868E-03
    1    2    0.15215074E-01  0.42438513E-02  0.54238616E-01  0.15128328E-01 -0.19683966E-07  0.31274841E-07
    2    2   -0.27408631E-15 -0.17691642E-17 -0.34000580E-15  0.23128595E-19 -0.41980308E-15 -0.27178160E-17
    3    2    0.35080409E-02  0.13659394E-02 -0.19358507E-02 -0.75404357E-03 -0.35079164E-02 -0.13657425E-02
    4    2   -0.19977225E-01 -0.86286939E-02 -0.13422687E-01 -0.57976100E-02 -0.12761760E-02 -0.55115005E-03
    5    2    0.23861517E-02 -0.66268786E-02  0.19240098E-02 -0.53432744E-02 -0.23861672E-02  0.66267165E-02
    6    2   -0.60077767E-02 -0.80807854E-04  0.10241324E-01  0.13789901E-03 -0.12026209E-01 -0.16166524E-03
    7    2   -0.16367989E-02  0.11915583E-01 -0.13939778E-02  0.10147183E-01 -0.81757944E-03  0.59524596E-02
    8    2   -0.15864163E-07 -0.54168070E-07  0.53103822E-02  0.16058583E-03 -0.53102945E-02 -0.16055326E-03
    1    3   -0.59787682E-02  0.59582042E-03  0.10191880E-01 -0.10156376E-02  0.11968069E-01 -0.11927223E-02
    2    3   -0.35080409E-02  0.13659394E-02  0.19358507E-02 -0.75404357E-03  0.35079164E-02 -0.13657425E-02
    3    3   -0.66613381E-15  0.17685026E-17 -0.65052130E-15 -0.23305997E-19  0.78409501E-15  0.27161775E-17
    4    3   -0.60043777E-02 -0.21848176E-03 -0.12019487E-01 -0.43735551E-03 -0.10235555E-01 -0.37232487E-03
    5    3   -0.67211787E-04 -0.26114711E-02 -0.73146025E-08 -0.98066683E-07  0.67056573E-04  0.26115760E-02
    6    3   -0.24468544E-02  0.91522259E-03 -0.24467836E-02  0.91508170E-03 -0.64560296E-08  0.64577865E-07
    7    3    0.15900607E-06  0.39599552E-07 -0.60769065E-03 -0.25405375E-02  0.60790996E-03  0.25404638E-02
    8    3   -0.11334500E-01  0.40237434E-02 -0.56623588E-02  0.20101347E-02 -0.96520820E-02  0.34264821E-02
    1    4   -0.11719388E-07  0.48644268E-08  0.52640425E-02 -0.71878839E-03  0.52639175E-02 -0.71884512E-03
    2    4    0.19977225E-01 -0.86286939E-02  0.13422687E-01 -0.57976100E-02  0.12761760E-02 -0.55115005E-03
    3    4    0.60043777E-02 -0.21848176E-03  0.12019487E-01 -0.43735551E-03  0.10235555E-01 -0.37232487E-03
    4    4    0.27061686E-15 -0.23161951E-19  0.10130785E-14  0.23143341E-19  0.25673907E-15  0.92551129E-18
    5    4   -0.23343586E-03 -0.37573214E-02  0.23359389E-03  0.37570928E-02 -0.12920154E-03 -0.20733287E-02
    6    4   -0.11104725E-01  0.46201027E-02 -0.55473631E-02  0.23079614E-02  0.94564677E-02 -0.39343634E-02
    7    4    0.18869259E-02  0.67859956E-02 -0.18867645E-02 -0.67859799E-02 -0.15214411E-02 -0.54715362E-02
    8    4   -0.72725427E-02  0.28837967E-02  0.72725639E-02 -0.28837254E-02  0.15285192E-07 -0.60801563E-08
    1    5   -0.88453304E-03 -0.11994745E-01 -0.75322752E-03 -0.10214546E-01  0.44175467E-03  0.59921956E-02
    2    5   -0.23861517E-02 -0.66268786E-02 -0.19240098E-02 -0.53432744E-02  0.23861672E-02  0.66267165E-02
    3    5    0.67211787E-04 -0.26114711E-02  0.73146027E-08 -0.98066683E-07 -0.67056573E-04  0.26115760E-02
    4    5    0.23343586E-03 -0.37573214E-02 -0.23359389E-03  0.37570928E-02  0.12920154E-03 -0.20733287E-02
    5    5   -0.34347525E-15  0.23343067E-19  0.81532003E-16 -0.23332636E-19 -0.35388359E-15 -0.92435115E-18
    6    5   -0.10003204E-06  0.98860973E-07  0.85160299E-03  0.24694700E-02  0.85161799E-03  0.24695515E-02
    7    5    0.25553806E-02 -0.54206980E-03 -0.25555045E-02  0.54212434E-03  0.12615850E-06  0.89183773E-07
    8    5   -0.21848305E-02 -0.66959856E-02  0.21846245E-02  0.66959252E-02 -0.17615710E-02 -0.53987698E-02
    1    6    0.36393919E-02  0.96252758E-03 -0.20082027E-02 -0.53115198E-03  0.36393799E-02  0.96243038E-03
    2    6    0.60077767E-02 -0.80807854E-04 -0.10241324E-01  0.13789901E-03  0.12026209E-01 -0.16166524E-03
    3    6    0.24468544E-02  0.91522259E-03  0.24467836E-02  0.91508170E-03  0.64560296E-08  0.64577865E-07
    4    6    0.11104725E-01  0.46201027E-02  0.55473631E-02  0.23079614E-02 -0.94564677E-02 -0.39343634E-02
    5    6    0.10003204E-06  0.98860973E-07 -0.85160299E-03  0.24694700E-02 -0.85161799E-03  0.24695515E-02
    6    6    0.66439909E-15  0.23321822E-19  0.29663771E-15 -0.17685341E-17  0.41806836E-15  0.27161700E-17
    7    6   -0.32075632E-03  0.25923473E-02 -0.32081925E-07  0.12255361E-06 -0.32063659E-03  0.25924302E-02
    8    6    0.60076711E-02  0.10080749E-03  0.12025712E-01  0.20176193E-03 -0.10240782E-01 -0.17163008E-03
    1    7   -0.95126439E-03  0.69788010E-02 -0.76710580E-03  0.56271652E-02 -0.95130808E-03  0.69787991E-02
    2    7    0.16367989E-02  0.11915583E-01  0.13939778E-02  0.10147183E-01  0.81757944E-03  0.59524596E-02
    3    7   -0.15900607E-06  0.39599552E-07  0.60769065E-03 -0.25405375E-02 -0.60790996E-03  0.25404638E-02
    4    7   -0.18869259E-02  0.67859956E-02  0.18867645E-02 -0.67859799E-02  0.15214411E-02 -0.54715362E-02
    5    7   -0.25553806E-02 -0.54206980E-03  0.25555045E-02  0.54212434E-03 -0.12615850E-06  0.89183772E-07
    6    7    0.32075632E-03  0.25923473E-02  0.32081925E-07  0.12255361E-06  0.32063659E-03  0.25924302E-02
    7    7    0.62796990E-15  0.27161286E-17 -0.42674198E-15 -0.27161459E-17  0.22551405E-15  0.23296273E-19
    8    7    0.39923533E-03  0.37431721E-02 -0.39923826E-03 -0.37431093E-02 -0.22040986E-03 -0.20656342E-02
    1    8   -0.21128196E-01 -0.52105002E-02 -0.14195619E-01 -0.35008306E-02  0.13496663E-02  0.33278868E-03
    2    8    0.15864163E-07 -0.54168070E-07 -0.53103822E-02  0.16058583E-03  0.53102945E-02 -0.16055326E-03
    3    8    0.11334500E-01  0.40237434E-02  0.56623588E-02  0.20101347E-02  0.96520820E-02  0.34264821E-02
    4    8    0.72725427E-02  0.28837967E-02 -0.72725639E-02 -0.28837254E-02 -0.15285192E-07 -0.60801567E-08
    5    8    0.21848305E-02 -0.66959856E-02 -0.21846245E-02  0.66959252E-02  0.17615710E-02 -0.53987698E-02
    6    8   -0.60076711E-02  0.10080749E-03 -0.12025712E-01  0.20176193E-03  0.10240782E-01 -0.17163008E-03
    7    8   -0.39923533E-03  0.37431721E-02  0.39923826E-03 -0.37431093E-02  0.22040986E-03 -0.20656342E-02
    8    8   -0.66548329E-15 -0.27177723E-17 -0.54188425E-15  0.27177776E-17  0.22269513E-15 -0.23134678E-19

   -1    0    0
    1    1   -0.77459612E-02  0.55131675E-16 -0.37757783E-03 -0.11159592E-15 -0.77459612E-02  0.55131676E-16
    2    1    0.20960790E-01 -0.58464510E-02 -0.13389800E-02  0.37348797E-03  0.40752369E-03 -0.11380813E-03
    3    1   -0.82651312E-02 -0.82376291E-03 -0.42612436E-02 -0.42464774E-03 -0.15117038E-03 -0.15202020E-04
    4    1   -0.14486715E-01 -0.19781045E-02 -0.13773757E-02 -0.18811233E-03  0.21560818E-01  0.29442270E-02
    5    1    0.11065696E-04 -0.15135810E-03  0.31502655E-03 -0.42708162E-02  0.61066332E-03 -0.82835976E-02
    6    1    0.52175030E-02 -0.13799329E-02 -0.11413551E-01  0.30186193E-02  0.52174491E-02 -0.13800070E-02
    7    1   -0.20443943E-04 -0.15029354E-03 -0.57852979E-03 -0.42431324E-02 -0.20360508E-04 -0.15030167E-03
    8    1   -0.14195822E-01  0.35006829E-02 -0.13497973E-02  0.33287973E-03  0.41065920E-03 -0.10149524E-03
    1    2    0.40752369E-03  0.11380813E-03 -0.14083369E-01 -0.39281523E-02  0.20960790E-01  0.58464510E-02
    2    2    0.19959337E-06 -0.54657463E-16 -0.36639062E-01  0.11386250E-15  0.19959337E-06  0.54657339E-16
    3    2    0.13051159E-01  0.50821873E-02  0.28950768E-01  0.11273596E-01 -0.13051109E-01 -0.50822767E-02
    4    2    0.12761853E-02  0.55125033E-03 -0.13422401E-01 -0.57977178E-02  0.19977043E-01  0.86285223E-02
    5    2    0.76867388E-02 -0.21347192E-01  0.11500332E-01 -0.31938872E-01 -0.76865995E-02  0.21347463E-01
    6    2   -0.33931536E-01 -0.45653891E-03 -0.33942900E-01 -0.45676163E-03  0.22686914E-01  0.30549593E-03
    7    2    0.30880962E-02 -0.22478372E-01  0.46200158E-02 -0.33630558E-01 -0.46185034E-02  0.33619166E-01
    8    2    0.13892660E-02  0.41977855E-04 -0.14614316E-01 -0.44172787E-03 -0.42295306E-03 -0.12717860E-04
    1    3   -0.15117038E-03  0.15202020E-04 -0.15096739E-03  0.15056873E-04 -0.82651312E-02  0.82376291E-03
    2    3   -0.13051109E-01  0.50822767E-02 -0.13051048E-01  0.50822414E-02  0.13051159E-01 -0.50821873E-02
    3    3   -0.40783009E-07 -0.28484015E-16  0.36620234E-01 -0.30726377E-16 -0.40783011E-07  0.28484060E-16
    4    3    0.10235512E-01  0.37240551E-03 -0.12019412E-01 -0.43747494E-03  0.60043872E-02  0.21866532E-03
    5    3   -0.46431459E-03 -0.18059049E-01 -0.12177846E-02 -0.47332674E-01  0.46420522E-03  0.18058867E-01
    6    3    0.24639459E-01 -0.92149891E-02 -0.76624057E-02  0.28656168E-02 -0.23461021E-01  0.87743198E-02
    7    3    0.58279369E-02  0.24360922E-01 -0.19033406E-02 -0.79563407E-02 -0.61206609E-02 -0.25584146E-01
    8    3    0.29391166E-01 -0.10433680E-01  0.12467850E-01 -0.44262150E-02 -0.12467712E-01  0.44260063E-02
    1    4    0.21560818E-01 -0.29442270E-02  0.41912348E-03 -0.57301536E-04 -0.14486715E-01  0.19781045E-02
    2    4    0.19977043E-01 -0.86285223E-02 -0.38847361E-03  0.16769835E-03  0.12761853E-02 -0.55125033E-03
    3    4    0.60043872E-02 -0.21866532E-03 -0.21746284E-02  0.79215835E-04  0.10235512E-01 -0.37240551E-03
    4    4    0.84847674E-08  0.54657317E-16 -0.36639136E-01 -0.52413889E-16  0.84847689E-08  0.11161899E-15
    5    4   -0.23341099E-03 -0.37575162E-02  0.22826745E-03  0.36711572E-02 -0.12918692E-03 -0.20731903E-02
    6    4    0.65031299E-02 -0.27055779E-02 -0.14042814E-02  0.58430330E-03 -0.52434776E-02  0.21816693E-02
    7    4   -0.32220000E-02 -0.11587745E-01 -0.58291104E-03 -0.20967190E-02  0.27438264E-02  0.98680237E-02
    8    4   -0.13591516E-01  0.53893255E-02 -0.39320879E-03  0.15594234E-03  0.12922317E-02 -0.51238956E-03
    1    5    0.61066332E-03  0.82835976E-02  0.11185816E-04  0.15120609E-03  0.11065696E-04  0.15135810E-03
    2    5   -0.76865995E-02 -0.21347463E-01 -0.11496449E-01 -0.31927779E-01  0.76867388E-02  0.21347192E-01
    3    5    0.46420522E-03 -0.18058867E-01 -0.12178814E-02  0.47332431E-01 -0.46431459E-03  0.18059049E-01
    4    5   -0.12918692E-03  0.20731903E-02 -0.23374011E-03  0.37572274E-02 -0.23341099E-03  0.37575162E-02
    5    5    0.34128797E-07  0.28484059E-16  0.36620204E-01 -0.30726388E-16  0.34128799E-07 -0.28483985E-16
    6    5    0.81677411E-02  0.23678794E-01  0.26675938E-02  0.77336271E-02 -0.85781800E-02 -0.24868223E-01
    7    5   -0.25733092E-01  0.54605330E-02 -0.80026660E-02  0.16981505E-02  0.24502685E-01 -0.51992809E-02
    8    5    0.97485348E-02  0.29877970E-01  0.15191561E-01  0.46558230E-01 -0.10674695E-01 -0.32715180E-01
    1    6    0.52174491E-02  0.13800070E-02  0.52175159E-02  0.13798836E-02  0.52175030E-02  0.13799329E-02
    2    6    0.22686914E-01 -0.30549593E-03  0.22686805E-01 -0.30529619E-03 -0.33931536E-01  0.45653891E-03
    3    6   -0.23461021E-01 -0.87743198E-02  0.75267605E-02  0.28148083E-02  0.24639459E-01  0.92149891E-02
    4    6   -0.52434776E-02 -0.21816693E-02  0.65031072E-02  0.27056321E-02  0.65031299E-02  0.27055779E-02
    5    6   -0.85781800E-02  0.24868223E-01 -0.26204100E-02  0.75966428E-02  0.81677411E-02 -0.23678794E-01
    6    6    0.77378671E-02  0.28010230E-16  0.38049871E-03  0.28460709E-16  0.77378671E-02  0.28010273E-16
    7    6    0.25328867E-06  0.15919202E-07  0.13080579E-03 -0.10574558E-02 -0.15366177E-06 -0.20746699E-06
    8    6   -0.31423626E-01 -0.52713337E-03 -0.34408010E-01 -0.57703445E-03  0.48967259E-01  0.82122905E-03
    1    7   -0.20360508E-04  0.15030167E-03 -0.11219537E-02  0.82300098E-02 -0.20443943E-04  0.15029354E-03
    2    7   -0.46185034E-02 -0.33619166E-01 -0.30878264E-02 -0.22478486E-01  0.30880962E-02  0.22478372E-01
    3    7   -0.61206609E-02  0.25584146E-01  0.18695084E-02 -0.78150867E-02  0.58279369E-02 -0.24360922E-01
    4    7    0.27438264E-02 -0.98680237E-02  0.16094750E-02 -0.57887449E-02 -0.32220000E-02  0.11587745E-01
    5    7    0.24502685E-01  0.51992809E-02  0.78606386E-02  0.16679892E-02 -0.25733092E-01 -0.54605330E-02
    6    7   -0.15366177E-06  0.20746699E-06  0.13075122E-03  0.10572795E-02  0.25328867E-06 -0.15919202E-07
    7    7   -0.77381209E-02 -0.28010161E-16  0.38106710E-03  0.28460646E-16 -0.77381209E-02 -0.28010146E-16
    8    7    0.35812628E-03  0.33561349E-02 -0.54408956E-03 -0.50974386E-02  0.54386350E-03  0.50974483E-02
    1    8    0.41065920E-03  0.10149524E-03  0.21127720E-01  0.52104187E-02 -0.14195822E-01 -0.35006829E-02
    2    8   -0.42295306E-03  0.12717860E-04  0.21751189E-01 -0.65754807E-03  0.13892660E-02 -0.41977855E-04
    3    8   -0.12467712E-01 -0.44260063E-02  0.38383049E-02  0.13624396E-02  0.29391166E-01  0.10433680E-01
    4    8    0.12922317E-02  0.51238956E-03  0.20228947E-01  0.80209791E-02 -0.13591516E-01 -0.53893255E-02
    5    8   -0.10674695E-01  0.32715180E-01 -0.63150178E-02  0.19354325E-01  0.97485348E-02 -0.29877970E-01
    6    8    0.48967259E-01 -0.82122905E-03  0.20355786E-01 -0.34144364E-03 -0.31423626E-01  0.52713337E-03
    7    8    0.54386350E-03 -0.50974483E-02  0.73648767E-03 -0.69017890E-02  0.35812628E-03 -0.33561349E-02
    8    8    0.77464154E-02 -0.55131802E-16 -0.37812737E-03  0.54680639E-16  0.77464154E-02  0.11114465E-15

   -1    0    1
    1    1   -0.37774023E-03  0.19089583E-23 -0.77459927E-02 -0.45118144E-18 -0.77459927E-02  0.45118004E-18
    2    1    0.20961084E-01 -0.58464611E-02 -0.13389733E-02  0.37343714E-03 -0.14083648E-01  0.39282721E-02
    3    1    0.40529989E-02  0.40384456E-03 -0.31033800E-01 -0.30927440E-02  0.13164843E-01  0.13121586E-02
    4    1   -0.77514547E-02 -0.10583185E-02  0.41330236E-07  0.85075582E-08  0.70326399E-07 -0.13975212E-07
    5    1   -0.14972871E-02  0.20303421E-01 -0.23112863E-02  0.31342684E-01  0.36015801E-02 -0.48841621E-01
    6    1   -0.67104802E-02  0.17747077E-02  0.32624866E-02 -0.86288765E-03  0.49564181E-02 -0.13108846E-02
    7    1    0.27501621E-02  0.20172291E-01  0.42453669E-02  0.31140039E-01 -0.46482992E-02 -0.34097178E-01
    8    1   -0.75957246E-02  0.18728905E-02  0.35481744E-07 -0.11374168E-07 -0.75954719E-02  0.18732810E-02
    1    2    0.40742508E-03  0.11356135E-03 -0.14083648E-01 -0.39282721E-02 -0.13389733E-02 -0.37343714E-03
    2    2   -0.36638670E-01  0.47430454E-18 -0.49637095E-07  0.27178122E-17 -0.49637094E-07 -0.23159540E-19
    3    2    0.34275851E-02  0.13347547E-02 -0.19355280E-02 -0.75405300E-03 -0.35079354E-02 -0.13660237E-02
    4    2    0.22270585E-06  0.29234414E-07  0.51693422E-01  0.22327187E-01 -0.31629620E-08 -0.10138734E-06
    5    2    0.73729773E-03 -0.20474036E-02 -0.34696577E-02  0.96367272E-02  0.40745704E-02 -0.11316177E-01
    6    2   -0.15206963E-02 -0.20451358E-04 -0.56786253E-02 -0.76447404E-04  0.70427640E-02  0.94769343E-04
    7    2    0.29605217E-03 -0.21560549E-02 -0.13939851E-02  0.10147172E-01 -0.81766688E-03  0.59524935E-02
    8    2    0.21026978E-07  0.66946468E-08  0.56282989E-01  0.17013971E-02 -0.15788472E-01 -0.47714924E-03
    1    3    0.13164685E-01 -0.13119338E-02  0.13164843E-01 -0.13121586E-02 -0.31033800E-01  0.30927440E-02
    2    3   -0.35079865E-02  0.13659313E-02 -0.35079354E-02  0.13660237E-02 -0.19355280E-02  0.75405300E-03
    3    3    0.36619817E-01 -0.47381234E-18  0.90281348E-07 -0.27161575E-17  0.90281349E-07  0.23318838E-19
    4    3    0.13221064E-01  0.48102295E-03  0.31167241E-01  0.11341158E-02 -0.13221310E-01 -0.48105586E-03
    5    3   -0.21035037E-03 -0.81782718E-02  0.64452397E-03  0.25039597E-01 -0.67676705E-03 -0.26297150E-01
    6    3   -0.76625464E-02  0.28658100E-02  0.24639313E-01 -0.92146690E-02 -0.23461023E-01  0.87741047E-02
    7    3   -0.11016543E-01 -0.46048470E-01 -0.42030628E-02 -0.17568905E-01  0.42030843E-02  0.17568804E-01
    8    3   -0.11334361E-01  0.40236878E-02  0.96521734E-02 -0.34264751E-02  0.56622642E-02 -0.20101182E-02
    1    4   -0.77514215E-02  0.10584063E-02  0.70326399E-07  0.13975212E-07  0.41330236E-07 -0.85075583E-08
    2    4   -0.14501232E-01  0.62629587E-02 -0.31629621E-08  0.10138734E-06  0.51693422E-01 -0.22327187E-01
    3    4    0.40702875E-02 -0.14833557E-03 -0.13221310E-01  0.48105586E-03  0.31167241E-01 -0.11341158E-02
    4    4   -0.37804058E-03 -0.45810227E-23  0.77461454E-02  0.22434960E-17  0.77461454E-02 -0.22434725E-17
    5    4   -0.43079688E-03 -0.69277861E-02 -0.31814785E-03 -0.51167512E-02 -0.20937000E-03 -0.33683806E-02
    6    4    0.18796598E-01 -0.78203443E-02  0.45216979E-01 -0.18812243E-01 -0.29016590E-01  0.12072153E-01
    7    4    0.54538500E-02  0.19614732E-01  0.92187095E-02  0.33154862E-01 -0.84191217E-02 -0.30279541E-01
    8    4    0.20228818E-01 -0.80209691E-02  0.12920501E-02 -0.51232459E-03 -0.13591491E-01  0.53892984E-02
    1    5    0.25307471E-02  0.34319318E-01  0.36015801E-02  0.48841621E-01 -0.23112863E-02 -0.31342684E-01
    2    5   -0.20355712E-02 -0.56530178E-02  0.40745704E-02  0.11316177E-01 -0.34696577E-02 -0.96367272E-02
    3    5    0.20676197E-03 -0.80331336E-02 -0.67676705E-03  0.26297150E-01  0.64452397E-03 -0.25039597E-01
    4    5    0.31824626E-03 -0.51166903E-02 -0.20937000E-03  0.33683806E-02 -0.31814785E-03  0.51167512E-02
    5    5    0.38095974E-03  0.11171414E-22 -0.77381551E-02 -0.22423275E-17 -0.77381551E-02  0.22423220E-17
    6    5    0.34758064E-03  0.10069899E-02  0.12118284E-07  0.79934924E-07  0.59884622E-09 -0.10138562E-06
    7    5    0.78606474E-02 -0.16680950E-02  0.24502556E-01 -0.51992760E-02 -0.25733086E-01  0.54603923E-02
    8    5   -0.18635743E-02 -0.57121239E-02 -0.31770040E-02 -0.97370340E-02  0.37308242E-02  0.11433981E-01
    1    6    0.49563828E-02  0.13106909E-02  0.49564181E-02  0.13108846E-02  0.32624866E-02  0.86288765E-03
    2    6    0.70428025E-02 -0.94778393E-04  0.70427640E-02 -0.94769343E-04 -0.56786253E-02  0.76447404E-04
    3    6    0.75265753E-02  0.28148903E-02 -0.23461023E-01 -0.87741047E-02  0.24639313E-01  0.92146690E-02
    4    6   -0.31772613E-01 -0.13218845E-01 -0.29016590E-01 -0.12072153E-01  0.45216979E-01  0.18812243E-01
    5    6    0.34745570E-03 -0.10070864E-02  0.59884635E-09  0.10138562E-06  0.12118284E-07 -0.79934924E-07
    6    6    0.38066275E-03  0.55877733E-24  0.77379421E-02  0.45050944E-18  0.77379421E-02 -0.45049965E-18
    7    6   -0.98658802E-03  0.79752095E-02 -0.32289687E-02  0.26107146E-01  0.30746005E-02 -0.24858521E-01
    8    6    0.70423852E-02  0.11805784E-03 -0.56782994E-02 -0.95214459E-04  0.70423130E-02  0.11801239E-03
    1    7   -0.66152428E-02  0.48525266E-01 -0.46482992E-02  0.34097178E-01  0.42453669E-02 -0.31140039E-01
    2    7    0.16368733E-02  0.11915514E-01 -0.81766688E-03 -0.59524935E-02 -0.13939851E-02 -0.10147172E-01
    3    7   -0.11016434E-01  0.46048596E-01  0.42030843E-02 -0.17568804E-01 -0.42030628E-02  0.17568905E-01
    4    7   -0.13119636E-01  0.47184115E-01 -0.84191217E-02  0.30279541E-01  0.92187095E-02 -0.33154862E-01
    5    7   -0.80025541E-02 -0.16982657E-02 -0.25733086E-01 -0.54603923E-02  0.24502556E-01  0.51992760E-02
    6    7    0.10042089E-02  0.81189123E-02  0.30746005E-02  0.24858521E-01 -0.32289687E-02 -0.26107146E-01
    7    7    0.36619769E-01  0.47381774E-18 -0.89924320E-07 -0.23339139E-19 -0.89924320E-07  0.27161464E-17
    8    7    0.39944741E-03  0.37433982E-02  0.22038700E-03  0.20653833E-02  0.39947750E-03  0.37434781E-02
    1    8    0.58569951E-07 -0.66302517E-07 -0.75954719E-02 -0.18732810E-02  0.35481744E-07  0.11374168E-07
    2    8    0.41283257E-07 -0.63151834E-07 -0.15788472E-01  0.47714924E-03  0.56282989E-01 -0.17013971E-02
    3    8   -0.20509362E-02 -0.72808278E-03  0.56622642E-02  0.20101182E-02  0.96521734E-02  0.34264751E-02
    4    8   -0.39335217E-03 -0.15607495E-03 -0.13591491E-01 -0.53892984E-02  0.12920501E-02  0.51232459E-03
    5    8    0.67515773E-03 -0.20688858E-02  0.37308242E-02 -0.11433981E-01 -0.31770040E-02  0.97370340E-02
    6    8   -0.15208265E-02  0.25554996E-04  0.70423130E-02 -0.11801239E-03 -0.56782994E-02  0.95214459E-04
    7    8   -0.39032137E-03  0.36577080E-02  0.39947750E-03 -0.37434781E-02  0.22038700E-03 -0.20653833E-02
    8    8   -0.36638642E-01 -0.47432547E-18 -0.45121168E-07  0.23159293E-19 -0.45121168E-07 -0.27178001E-17

   -1    1   -1
    1    1   -0.28449465E-15  0.23133213E-19 -0.59674488E-15  0.27177883E-17  0.26367797E-15  0.27178171E-17
    2    1   -0.15215074E-01  0.42438513E-02 -0.54238616E-01  0.15128328E-01  0.19683966E-07  0.31274840E-07
    3    1    0.59787682E-02  0.59582042E-03 -0.10191880E-01 -0.10156376E-02 -0.11968069E-01 -0.11927223E-02
    4    1    0.11719388E-07  0.48644268E-08 -0.52640425E-02 -0.71878839E-03 -0.52639175E-02 -0.71884512E-03
    5    1    0.88453304E-03 -0.11994745E-01  0.75322752E-03 -0.10214546E-01 -0.44175467E-03  0.59921956E-02
    6    1   -0.36393919E-02  0.96252758E-03  0.20082027E-02 -0.53115198E-03 -0.36393799E-02  0.96243038E-03
    7    1    0.95126439E-03  0.69788010E-02  0.76710580E-03  0.56271652E-02  0.95130808E-03  0.69787991E-02
    8    1    0.21128196E-01 -0.52105002E-02  0.14195619E-01 -0.35008306E-02 -0.13496663E-02  0.33278868E-03
    1    2    0.15215074E-01  0.42438513E-02  0.54238616E-01  0.15128328E-01 -0.19683966E-07  0.31274841E-07
    2    2   -0.27408631E-15  0.27177898E-17 -0.34000580E-15  0.23123658E-19 -0.41980308E-15  0.17691904E-17
    3    2    0.35080409E-02  0.13659394E-02 -0.19358507E-02 -0.75404357E-03 -0.35079164E-02 -0.13657425E-02
    4    2   -0.19977225E-01 -0.86286939E-02 -0.13422687E-01 -0.57976100E-02 -0.12761760E-02 -0.55115005E-03
    5    2    0.23861517E-02 -0.66268786E-02  0.19240098E-02 -0.53432744E-02 -0.23861672E-02  0.66267165E-02
    6    2   -0.60077767E-02 -0.80807854E-04  0.10241324E-01  0.13789901E-03 -0.12026209E-01 -0.16166524E-03
    7    2   -0.16367989E-02  0.11915583E-01 -0.13939778E-02  0.10147183E-01 -0.81757944E-03  0.59524596E-02
    8    2   -0.15864163E-07 -0.54168070E-07  0.53103822E-02  0.16058583E-03 -0.53102945E-02 -0.16055326E-03
    1    3   -0.59787682E-02  0.59582042E-03  0.10191880E-01 -0.10156376E-02  0.11968069E-01 -0.11927223E-02
    2    3   -0.35080409E-02  0.13659394E-02  0.19358507E-02 -0.75404357E-03  0.35079164E-02 -0.13657425E-02
    3    3   -0.66613381E-15 -0.27161429E-17 -0.65052130E-15 -0.23305694E-19  0.78409501E-15 -0.17685371E-17
    4    3   -0.60043777E-02 -0.21848176E-03 -0.12019487E-01 -0.43735551E-03 -0.10235555E-01 -0.37232487E-03
    5    3   -0.67211787E-04 -0.26114711E-02 -0.73146025E-08 -0.98066683E-07  0.67056573E-04  0.26115760E-02
    6    3   -0.24468544E-02  0.91522259E-03 -0.24467836E-02  0.91508170E-03 -0.64560296E-08  0.64577865E-07
    7    3    0.15900607E-06  0.39599552E-07 -0.60769065E-03 -0.25405375E-02  0.60790996E-03  0.25404638E-02
    8    3   -0.11334500E-01  0.40237434E-02 -0.56623588E-02  0.20101347E-02 -0.96520820E-02  0.34264821E-02
    1    4   -0.11719388E-07  0.48644268E-08  0.52640425E-02 -0.71878839E-03  0.52639175E-02 -0.71884512E-03
    2    4    0.19977225E-01 -0.86286939E-02  0.13422687E-01 -0.57976100E-02  0.12761760E-02 -0.55115005E-03
    3    4    0.60043777E-02 -0.21848176E-03  0.12019487E-01 -0.43735551E-03  0.10235555E-01 -0.37232487E-03
    4    4    0.27061686E-15 -0.92547097E-18  0.10130785E-14  0.23119760E-19  0.25673907E-15  0.23121632E-19
    5    4   -0.23343586E-03 -0.37573214E-02  0.23359389E-03  0.37570928E-02 -0.12920154E-03 -0.20733287E-02
    6    4   -0.11104725E-01  0.46201027E-02 -0.55473631E-02  0.23079614E-02  0.94564677E-02 -0.39343634E-02
    7    4    0.18869259E-02  0.67859956E-02 -0.18867645E-02 -0.67859799E-02 -0.15214411E-02 -0.54715362E-02
    8    4   -0.72725427E-02  0.28837967E-02  0.72725639E-02 -0.28837254E-02  0.15285192E-07 -0.60801563E-08
[...]
    2    2   -0.36638670E-01 -0.47430454E-18 -0.49637095E-07 -0.27178122E-17 -0.49637094E-07  0.23159540E-19
    3    2    0.34275851E-02  0.13347547E-02 -0.19355280E-02 -0.75405300E-03 -0.35079354E-02 -0.13660237E-02
    4    2    0.22270585E-06  0.29234414E-07  0.51693422E-01  0.22327187E-01 -0.31629620E-08 -0.10138734E-06
    5    2    0.73729773E-03 -0.20474036E-02 -0.34696577E-02  0.96367272E-02  0.40745704E-02 -0.11316177E-01
    6    2   -0.15206963E-02 -0.20451358E-04 -0.56786253E-02 -0.76447404E-04  0.70427640E-02  0.94769343E-04
    7    2    0.29605217E-03 -0.21560549E-02 -0.13939851E-02  0.10147172E-01 -0.81766688E-03  0.59524935E-02
    8    2    0.21026978E-07  0.66946468E-08  0.56282989E-01  0.17013971E-02 -0.15788472E-01 -0.47714924E-03
    1    3    0.13164685E-01 -0.13119338E-02  0.13164843E-01 -0.13121586E-02 -0.31033800E-01  0.30927440E-02
    2    3   -0.35079865E-02  0.13659313E-02 -0.35079354E-02  0.13660237E-02 -0.19355280E-02  0.75405300E-03
    3    3    0.36619817E-01  0.47381234E-18  0.90281348E-07  0.27161575E-17  0.90281349E-07 -0.23318838E-19
    4    3    0.13221064E-01  0.48102295E-03  0.31167241E-01  0.11341158E-02 -0.13221310E-01 -0.48105586E-03
    5    3   -0.21035037E-03 -0.81782718E-02  0.64452397E-03  0.25039597E-01 -0.67676705E-03 -0.26297150E-01
    6    3   -0.76625464E-02  0.28658100E-02  0.24639313E-01 -0.92146690E-02 -0.23461023E-01  0.87741047E-02
    7    3   -0.11016543E-01 -0.46048470E-01 -0.42030628E-02 -0.17568905E-01  0.42030843E-02  0.17568804E-01
    8    3   -0.11334361E-01  0.40236878E-02  0.96521734E-02 -0.34264751E-02  0.56622642E-02 -0.20101182E-02
    1    4   -0.77514215E-02  0.10584063E-02  0.70326399E-07  0.13975212E-07  0.41330236E-07 -0.85075583E-08
    2    4   -0.14501232E-01  0.62629587E-02 -0.31629621E-08  0.10138734E-06  0.51693422E-01 -0.22327187E-01
    3    4    0.40702875E-02 -0.14833557E-03 -0.13221310E-01  0.48105586E-03  0.31167241E-01 -0.11341158E-02
    4    4   -0.37804058E-03  0.45810227E-23  0.77461454E-02 -0.22434960E-17  0.77461454E-02  0.22434725E-17
    5    4   -0.43079688E-03 -0.69277861E-02 -0.31814785E-03 -0.51167512E-02 -0.20937000E-03 -0.33683806E-02
    6    4    0.18796598E-01 -0.78203443E-02  0.45216979E-01 -0.18812243E-01 -0.29016590E-01  0.12072153E-01
    7    4    0.54538500E-02  0.19614732E-01  0.92187095E-02  0.33154862E-01 -0.84191217E-02 -0.30279541E-01
    8    4    0.20228818E-01 -0.80209691E-02  0.12920501E-02 -0.51232459E-03 -0.13591491E-01  0.53892984E-02
    1    5    0.25307471E-02  0.34319318E-01  0.36015801E-02  0.48841621E-01 -0.23112863E-02 -0.31342684E-01
    2    5   -0.20355712E-02 -0.56530178E-02  0.40745704E-02  0.11316177E-01 -0.34696577E-02 -0.96367272E-02
    3    5    0.20676197E-03 -0.80331336E-02 -0.67676705E-03  0.26297150E-01  0.64452397E-03 -0.25039597E-01
    4    5    0.31824626E-03 -0.51166903E-02 -0.20937000E-03  0.33683806E-02 -0.31814785E-03  0.51167512E-02
    5    5    0.38095974E-03 -0.11171414E-22 -0.77381551E-02  0.22423275E-17 -0.77381551E-02 -0.22423220E-17
    6    5    0.34758064E-03  0.10069899E-02  0.12118284E-07  0.79934924E-07  0.59884622E-09 -0.10138562E-06
    7    5    0.78606474E-02 -0.16680950E-02  0.24502556E-01 -0.51992760E-02 -0.25733086E-01  0.54603923E-02
    8    5   -0.18635743E-02 -0.57121239E-02 -0.31770040E-02 -0.97370340E-02  0.37308242E-02  0.11433981E-01
    1    6    0.49563828E-02  0.13106909E-02  0.49564181E-02  0.13108846E-02  0.32624866E-02  0.86288765E-03
    2    6    0.70428025E-02 -0.94778393E-04  0.70427640E-02 -0.94769343E-04 -0.56786253E-02  0.76447404E-04
    3    6    0.75265753E-02  0.28148903E-02 -0.23461023E-01 -0.87741047E-02  0.24639313E-01  0.92146690E-02
    4    6   -0.31772613E-01 -0.13218845E-01 -0.29016590E-01 -0.12072153E-01  0.45216979E-01  0.18812243E-01
    5    6    0.34745570E-03 -0.10070864E-02  0.59884634E-09  0.10138562E-06  0.12118284E-07 -0.79934924E-07
    6    6    0.38066275E-03 -0.55877733E-24  0.77379421E-02 -0.45050944E-18  0.77379421E-02  0.45049965E-18
    7    6   -0.98658802E-03  0.79752095E-02 -0.32289687E-02  0.26107146E-01  0.30746005E-02 -0.24858521E-01
    8    6    0.70423852E-02  0.11805784E-03 -0.56782994E-02 -0.95214459E-04  0.70423130E-02  0.11801239E-03
    1    7   -0.66152428E-02  0.48525266E-01 -0.46482992E-02  0.34097178E-01  0.42453669E-02 -0.31140039E-01
    2    7    0.16368733E-02  0.11915514E-01 -0.81766688E-03 -0.59524935E-02 -0.13939851E-02 -0.10147172E-01
    3    7   -0.11016434E-01  0.46048596E-01  0.42030843E-02 -0.17568804E-01 -0.42030628E-02  0.17568905E-01
    4    7   -0.13119636E-01  0.47184115E-01 -0.84191217E-02  0.30279541E-01  0.92187095E-02 -0.33154862E-01
    5    7   -0.80025541E-02 -0.16982657E-02 -0.25733086E-01 -0.54603923E-02  0.24502556E-01  0.51992760E-02
    6    7    0.10042089E-02  0.81189123E-02  0.30746005E-02  0.24858521E-01 -0.32289687E-02 -0.26107146E-01
    7    7    0.36619769E-01 -0.47381774E-18 -0.89924320E-07  0.23339139E-19 -0.89924320E-07 -0.27161464E-17
    8    7    0.39944741E-03  0.37433982E-02  0.22038700E-03  0.20653833E-02  0.39947750E-03  0.37434781E-02
    1    8    0.58569951E-07 -0.66302517E-07 -0.75954719E-02 -0.18732810E-02  0.35481744E-07  0.11374168E-07
    2    8    0.41283257E-07 -0.63151834E-07 -0.15788472E-01  0.47714924E-03  0.56282989E-01 -0.17013971E-02
    3    8   -0.20509362E-02 -0.72808278E-03  0.56622642E-02  0.20101182E-02  0.96521734E-02  0.34264751E-02
    4    8   -0.39335217E-03 -0.15607495E-03 -0.13591491E-01 -0.53892984E-02  0.12920501E-02  0.51232459E-03
    5    8    0.67515773E-03 -0.20688858E-02  0.37308242E-02 -0.11433981E-01 -0.31770040E-02  0.97370340E-02
    6    8   -0.15208265E-02  0.25554996E-04  0.70423130E-02 -0.11801239E-03 -0.56782994E-02  0.95214459E-04
    7    8   -0.39032137E-03  0.36577080E-02  0.39947750E-03 -0.37434781E-02  0.22038700E-03 -0.20653833E-02
    8    8   -0.36638642E-01  0.47432547E-18 -0.45121168E-07 -0.23159293E-19 -0.45121168E-07  0.27178001E-17

    1    0    0
    1    1   -0.77459612E-02 -0.55131675E-16 -0.37757783E-03  0.11159592E-15 -0.77459612E-02 -0.55131676E-16
    2    1    0.20960790E-01 -0.58464510E-02 -0.13389800E-02  0.37348797E-03  0.40752369E-03 -0.11380813E-03
    3    1   -0.82651312E-02 -0.82376291E-03 -0.42612436E-02 -0.42464774E-03 -0.15117038E-03 -0.15202020E-04
    4    1   -0.14486715E-01 -0.19781045E-02 -0.13773757E-02 -0.18811233E-03  0.21560818E-01  0.29442270E-02
    5    1    0.11065696E-04 -0.15135810E-03  0.31502655E-03 -0.42708162E-02  0.61066332E-03 -0.82835976E-02
    6    1    0.52175030E-02 -0.13799329E-02 -0.11413551E-01  0.30186193E-02  0.52174491E-02 -0.13800070E-02
    7    1   -0.20443943E-04 -0.15029354E-03 -0.57852979E-03 -0.42431324E-02 -0.20360508E-04 -0.15030167E-03
    8    1   -0.14195822E-01  0.35006829E-02 -0.13497973E-02  0.33287973E-03  0.41065920E-03 -0.10149524E-03
    1    2    0.40752369E-03  0.11380813E-03 -0.14083369E-01 -0.39281523E-02  0.20960790E-01  0.58464510E-02
    2    2    0.19959337E-06  0.54657463E-16 -0.36639062E-01 -0.11386250E-15  0.19959337E-06 -0.54657339E-16
    3    2    0.13051159E-01  0.50821873E-02  0.28950768E-01  0.11273596E-01 -0.13051109E-01 -0.50822767E-02
    4    2    0.12761853E-02  0.55125033E-03 -0.13422401E-01 -0.57977178E-02  0.19977043E-01  0.86285223E-02
    5    2    0.76867388E-02 -0.21347192E-01  0.11500332E-01 -0.31938872E-01 -0.76865995E-02  0.21347463E-01
    6    2   -0.33931536E-01 -0.45653891E-03 -0.33942900E-01 -0.45676163E-03  0.22686914E-01  0.30549593E-03
    7    2    0.30880962E-02 -0.22478372E-01  0.46200158E-02 -0.33630558E-01 -0.46185034E-02  0.33619166E-01
    8    2    0.13892660E-02  0.41977855E-04 -0.14614316E-01 -0.44172787E-03 -0.42295306E-03 -0.12717860E-04
    1    3   -0.15117038E-03  0.15202020E-04 -0.15096739E-03  0.15056873E-04 -0.82651312E-02  0.82376291E-03
    2    3   -0.13051109E-01  0.50822767E-02 -0.13051048E-01  0.50822414E-02  0.13051159E-01 -0.50821873E-02
    3    3   -0.40783009E-07  0.28484015E-16  0.36620234E-01  0.30726377E-16 -0.40783011E-07 -0.28484060E-16
    4    3    0.10235512E-01  0.37240551E-03 -0.12019412E-01 -0.43747494E-03  0.60043872E-02  0.21866532E-03
    5    3   -0.46431459E-03 -0.18059049E-01 -0.12177846E-02 -0.47332674E-01  0.46420522E-03  0.18058867E-01
    6    3    0.24639459E-01 -0.92149891E-02 -0.76624057E-02  0.28656168E-02 -0.23461021E-01  0.87743198E-02
    7    3    0.58279369E-02  0.24360922E-01 -0.19033406E-02 -0.79563407E-02 -0.61206609E-02 -0.25584146E-01
    8    3    0.29391166E-01 -0.10433680E-01  0.12467850E-01 -0.44262150E-02 -0.12467712E-01  0.44260063E-02
    1    4    0.21560818E-01 -0.29442270E-02  0.41912348E-03 -0.57301536E-04 -0.14486715E-01  0.19781045E-02
    2    4    0.19977043E-01 -0.86285223E-02 -0.38847361E-03  0.16769835E-03  0.12761853E-02 -0.55125033E-03
    3    4    0.60043872E-02 -0.21866532E-03 -0.21746284E-02  0.79215835E-04  0.10235512E-01 -0.37240551E-03
    4    4    0.84847674E-08 -0.54657317E-16 -0.36639136E-01  0.52413889E-16  0.84847689E-08 -0.11161899E-15
    5    4   -0.23341099E-03 -0.37575162E-02  0.22826745E-03  0.36711572E-02 -0.12918692E-03 -0.20731903E-02
    6    4    0.65031299E-02 -0.27055779E-02 -0.14042814E-02  0.58430330E-03 -0.52434776E-02  0.21816693E-02
    7    4   -0.32220000E-02 -0.11587745E-01 -0.58291104E-03 -0.20967190E-02  0.27438264E-02  0.98680237E-02
    8    4   -0.13591516E-01  0.53893255E-02 -0.39320879E-03  0.15594234E-03  0.12922317E-02 -0.51238956E-03
    1    5    0.61066332E-03  0.82835976E-02  0.11185816E-04  0.15120609E-03  0.11065697E-04  0.15135810E-03
    2    5   -0.76865995E-02 -0.21347463E-01 -0.11496449E-01 -0.31927779E-01  0.76867388E-02  0.21347192E-01
    3    5    0.46420522E-03 -0.18058867E-01 -0.12178814E-02  0.47332431E-01 -0.46431459E-03  0.18059049E-01
    4    5   -0.12918692E-03  0.20731903E-02 -0.23374011E-03  0.37572274E-02 -0.23341099E-03  0.37575162E-02
    5    5    0.34128797E-07 -0.28484059E-16  0.36620204E-01  0.30726388E-16  0.34128799E-07  0.28483985E-16
    6    5    0.81677411E-02  0.23678794E-01  0.26675938E-02  0.77336271E-02 -0.85781800E-02 -0.24868223E-01
    7    5   -0.25733092E-01  0.54605330E-02 -0.80026660E-02  0.16981505E-02  0.24502685E-01 -0.51992809E-02
    8    5    0.97485348E-02  0.29877970E-01  0.15191561E-01  0.46558230E-01 -0.10674695E-01 -0.32715180E-01
    1    6    0.52174491E-02  0.13800070E-02  0.52175159E-02  0.13798836E-02  0.52175030E-02  0.13799329E-02
    2    6    0.22686914E-01 -0.30549593E-03  0.22686805E-01 -0.30529619E-03 -0.33931536E-01  0.45653891E-03
    3    6   -0.23461021E-01 -0.87743198E-02  0.75267605E-02  0.28148083E-02  0.24639459E-01  0.92149891E-02
    4    6   -0.52434776E-02 -0.21816693E-02  0.65031072E-02  0.27056321E-02  0.65031299E-02  0.27055779E-02
    5    6   -0.85781800E-02  0.24868223E-01 -0.26204100E-02  0.75966428E-02  0.81677411E-02 -0.23678794E-01
    6    6    0.77378671E-02 -0.28010230E-16  0.38049871E-03 -0.28460709E-16  0.77378671E-02 -0.28010273E-16
    7    6    0.25328867E-06  0.15919202E-07  0.13080579E-03 -0.10574558E-02 -0.15366177E-06 -0.20746699E-06
    8    6   -0.31423626E-01 -0.52713337E-03 -0.34408010E-01 -0.57703445E-03  0.48967259E-01  0.82122905E-03
    1    7   -0.20360508E-04  0.15030167E-03 -0.11219537E-02  0.82300098E-02 -0.20443943E-04  0.15029354E-03
    2    7   -0.46185034E-02 -0.33619166E-01 -0.30878264E-02 -0.22478486E-01  0.30880962E-02  0.22478372E-01
    3    7   -0.61206609E-02  0.25584146E-01  0.18695084E-02 -0.78150867E-02  0.58279369E-02 -0.24360922E-01
    4    7    0.27438264E-02 -0.98680237E-02  0.16094750E-02 -0.57887449E-02 -0.32220000E-02  0.11587745E-01
    5    7    0.24502685E-01  0.51992809E-02  0.78606386E-02  0.16679892E-02 -0.25733092E-01 -0.54605330E-02
    6    7   -0.15366177E-06  0.20746699E-06  0.13075122E-03  0.10572795E-02  0.25328867E-06 -0.15919202E-07
    7    7   -0.77381209E-02  0.28010161E-16  0.38106710E-03 -0.28460646E-16 -0.77381209E-02  0.28010146E-16
    8    7    0.35812628E-03  0.33561349E-02 -0.54408956E-03 -0.50974386E-02  0.54386350E-03  0.50974483E-02
    1    8    0.41065920E-03  0.10149524E-03  0.21127720E-01  0.52104187E-02 -0.14195822E-01 -0.35006829E-02
    2    8   -0.42295306E-03  0.12717860E-04  0.21751189E-01 -0.65754807E-03  0.13892660E-02 -0.41977855E-04
    3    8   -0.12467712E-01 -0.44260063E-02  0.38383049E-02  0.13624396E-02  0.29391166E-01  0.10433680E-01
    4    8    0.12922317E-02  0.51238956E-03  0.20228947E-01  0.80209791E-02 -0.13591516E-01 -0.53893255E-02
    5    8   -0.10674695E-01  0.32715180E-01 -0.63150178E-02  0.19354325E-01  0.97485348E-02 -0.29877970E-01
    6    8    0.48967259E-01 -0.82122905E-03  0.20355786E-01 -0.34144364E-03 -0.31423626E-01  0.52713337E-03
    7    8    0.54386350E-03 -0.50974483E-02  0.73648767E-03 -0.69017890E-02  0.35812628E-03 -0.33561349E-02
    8    8    0.77464154E-02  0.55131802E-16 -0.37812737E-03 -0.54680639E-16  0.77464154E-02 -0.11114465E-15

    1    1   -1
    1    1   -0.28449465E-15  0.23132730E-19 -0.59674488E-15 -0.17691839E-17  0.26367797E-15  0.27178175E-17
    2    1   -0.15215074E-01  0.42438513E-02 -0.54238616E-01  0.15128328E-01  0.19683966E-07  0.31274840E-07
    3    1    0.59787682E-02  0.59582042E-03 -0.10191880E-01 -0.10156376E-02 -0.11968069E-01 -0.11927223E-02
    4    1    0.11719388E-07  0.48644268E-08 -0.52640425E-02 -0.71878839E-03 -0.52639175E-02 -0.71884512E-03
    5    1    0.88453304E-03 -0.11994745E-01  0.75322752E-03 -0.10214546E-01 -0.44175467E-03  0.59921956E-02
    6    1   -0.36393919E-02  0.96252758E-03  0.20082027E-02 -0.53115198E-03 -0.36393799E-02  0.96243038E-03
    7    1    0.95126439E-03  0.69788010E-02  0.76710580E-03  0.56271652E-02  0.95130808E-03  0.69787991E-02
    8    1    0.21128196E-01 -0.52105002E-02  0.14195619E-01 -0.35008306E-02 -0.13496663E-02  0.33278868E-03
    1    2    0.15215074E-01  0.42438513E-02  0.54238616E-01  0.15128328E-01 -0.19683966E-07  0.31274841E-07
    2    2   -0.27408631E-15  0.17691642E-17 -0.34000580E-15 -0.23128595E-19 -0.41980308E-15  0.27178160E-17
    3    2    0.35080409E-02  0.13659394E-02 -0.19358507E-02 -0.75404357E-03 -0.35079164E-02 -0.13657425E-02
    4    2   -0.19977225E-01 -0.86286939E-02 -0.13422687E-01 -0.57976100E-02 -0.12761760E-02 -0.55115005E-03
    5    2    0.23861517E-02 -0.66268786E-02  0.19240098E-02 -0.53432744E-02 -0.23861672E-02  0.66267165E-02
    6    2   -0.60077767E-02 -0.80807854E-04  0.10241324E-01  0.13789901E-03 -0.12026209E-01 -0.16166524E-03
    7    2   -0.16367989E-02  0.11915583E-01 -0.13939778E-02  0.10147183E-01 -0.81757944E-03  0.59524596E-02
    8    2   -0.15864163E-07 -0.54168070E-07  0.53103822E-02  0.16058583E-03 -0.53102945E-02 -0.16055326E-03
    1    3   -0.59787682E-02  0.59582042E-03  0.10191880E-01 -0.10156376E-02  0.11968069E-01 -0.11927223E-02
    2    3   -0.35080409E-02  0.13659394E-02  0.19358507E-02 -0.75404357E-03  0.35079164E-02 -0.13657425E-02
    3    3   -0.66613381E-15 -0.17685026E-17 -0.65052130E-15  0.23305997E-19  0.78409501E-15 -0.27161775E-17
    4    3   -0.60043777E-02 -0.21848176E-03 -0.12019487E-01 -0.43735551E-03 -0.10235555E-01 -0.37232487E-03
    5    3   -0.67211787E-04 -0.26114711E-02 -0.73146025E-08 -0.98066683E-07  0.67056573E-04  0.26115760E-02
    6    3   -0.24468544E-02  0.91522259E-03 -0.24467836E-02  0.91508170E-03 -0.64560296E-08  0.64577865E-07
    7    3    0.15900607E-06  0.39599552E-07 -0.60769065E-03 -0.25405375E-02  0.60790996E-03  0.25404638E-02
    8    3   -0.11334500E-01  0.40237434E-02 -0.56623588E-02  0.20101347E-02 -0.96520820E-02  0.34264821E-02
    1    4   -0.11719388E-07  0.48644268E-08  0.52640425E-02 -0.71878839E-03  0.52639175E-02 -0.71884512E-03
    2    4    0.19977225E-01 -0.86286939E-02  0.13422687E-01 -0.57976100E-02  0.12761760E-02 -0.55115005E-03
    3    4    0.60043777E-02 -0.21848176E-03  0.12019487E-01 -0.43735551E-03  0.10235555E-01 -0.37232487E-03
    4    4    0.27061686E-15  0.23161951E-19  0.10130785E-14 -0.23143341E-19  0.25673907E-15 -0.92551129E-18
    5    4   -0.23343586E-03 -0.37573214E-02  0.23359389E-03  0.37570928E-02 -0.12920154E-03 -0.20733287E-02
    6    4   -0.11104725E-01  0.46201027E-02 -0.55473631E-02  0.23079614E-02  0.94564677E-02 -0.39343634E-02
    7    4    0.18869259E-02  0.67859956E-02 -0.18867645E-02 -0.67859799E-02 -0.15214411E-02 -0.54715362E-02
    8    4   -0.72725427E-02  0.28837967E-02  0.72725639E-02 -0.28837254E-02  0.15285192E-07 -0.60801563E-08
    1    5   -0.88453304E-03 -0.11994745E-01 -0.75322752E-03 -0.10214546E-01  0.44175467E-03  0.59921956E-02
    2    5   -0.23861517E-02 -0.66268786E-02 -0.19240098E-02 -0.53432744E-02  0.23861672E-02  0.66267165E-02
    3    5    0.67211787E-04 -0.26114711E-02  0.73146027E-08 -0.98066683E-07 -0.67056573E-04  0.26115760E-02
    4    5    0.23343586E-03 -0.37573214E-02 -0.23359389E-03  0.37570928E-02  0.12920154E-03 -0.20733287E-02
    5    5   -0.34347525E-15 -0.23343067E-19  0.81532003E-16  0.23332636E-19 -0.35388359E-15  0.92435115E-18
    6    5   -0.10003204E-06  0.98860973E-07  0.85160299E-03  0.24694700E-02  0.85161799E-03  0.24695515E-02
    7    5    0.25553806E-02 -0.54206980E-03 -0.25555045E-02  0.54212434E-03  0.12615850E-06  0.89183773E-07
    8    5   -0.21848305E-02 -0.66959856E-02  0.21846245E-02  0.66959252E-02 -0.17615710E-02 -0.53987698E-02
    1    6    0.36393919E-02  0.96252758E-03 -0.20082027E-02 -0.53115198E-03  0.36393799E-02  0.96243038E-03
    2    6    0.60077767E-02 -0.80807854E-04 -0.10241324E-01  0.13789901E-03  0.12026209E-01 -0.16166524E-03
    3    6    0.24468544E-02  0.91522259E-03  0.24467836E-02  0.91508170E-03  0.64560295E-08  0.64577865E-07
    4    6    0.11104725E-01  0.46201027E-02  0.55473631E-02  0.23079614E-02 -0.94564677E-02 -0.39343634E-02
    5    6    0.10003204E-06  0.98860973E-07 -0.85160299E-03  0.24694700E-02 -0.85161799E-03  0.24695515E-02
    6    6    0.66439909E-15 -0.23321822E-19  0.29663771E-15  0.17685341E-17  0.41806836E-15 -0.27161700E-17
    7    6   -0.32075632E-03  0.25923473E-02 -0.32081925E-07  0.12255361E-06 -0.32063659E-03  0.25924302E-02
    8    6    0.60076711E-02  0.10080749E-03  0.12025712E-01  0.20176193E-03 -0.10240782E-01 -0.17163008E-03
    1    7   -0.95126439E-03  0.69788010E-02 -0.76710580E-03  0.56271652E-02 -0.95130808E-03  0.69787991E-02
    2    7    0.16367989E-02  0.11915583E-01  0.13939778E-02  0.10147183E-01  0.81757944E-03  0.59524596E-02
    3    7   -0.15900607E-06  0.39599552E-07  0.60769065E-03 -0.25405375E-02 -0.60790996E-03  0.25404638E-02
    4    7   -0.18869259E-02  0.67859956E-02  0.18867645E-02 -0.67859799E-02  0.15214411E-02 -0.54715362E-02
    5    7   -0.25553806E-02 -0.54206980E-03  0.25555045E-02  0.54212434E-03 -0.12615850E-06  0.89183772E-07
    6    7    0.32075632E-03  0.25923473E-02  0.32081925E-07  0.12255361E-06  0.32063659E-03  0.25924302E-02
    7    7    0.62796990E-15 -0.27161286E-17 -0.42674198E-15  0.27161459E-17  0.22551405E-15 -0.23296273E-19
    8    7    0.39923533E-03  0.37431721E-02 -0.39923826E-03 -0.37431093E-02 -0.22040986E-03 -0.20656342E-02
    1    8   -0.21128196E-01 -0.52105002E-02 -0.14195619E-01 -0.35008306E-02  0.13496663E-02  0.33278868E-03
    2    8    0.15864163E-07 -0.54168070E-07 -0.53103822E-02  0.16058583E-03  0.53102945E-02 -0.16055326E-03
    3    8    0.11334500E-01  0.40237434E-02  0.56623588E-02  0.20101347E-02  0.96520820E-02  0.34264821E-02
    4    8    0.72725427E-02  0.28837967E-02 -0.72725639E-02 -0.28837254E-02 -0.15285192E-07 -0.60801567E-08
    5    8    0.21848305E-02 -0.66959856E-02 -0.21846245E-02  0.66959252E-02  0.17615710E-02 -0.53987698E-02
    6    8   -0.60076711E-02  0.10080749E-03 -0.12025712E-01  0.20176193E-03  0.10240782E-01 -0.17163008E-03
    7    8   -0.39923533E-03  0.37431721E-02  0.39923826E-03 -0.37431093E-02  0.22040986E-03 -0.20656342E-02
    8    8   -0.66548329E-15  0.27177723E-17 -0.54188425E-15 -0.27177776E-17  0.22269513E-15  0.23134678E-19
